ITEM: TIMESTEP
100066
ITEM: NUMBER OF ATOMS
501
ITEM: BOX BOUNDS pp pp pp
-3.3572466328349999e+00 3.3572466328349999e+00
-3.3572466328349999e+00 3.3572466328349999e+00
-3.3572466328349999e+00 3.3572466328349999e+00
ITEM: ATOMS id type x y z vx vy vz
424 2 -2.95249 -3.2815 -2.44898 -0.732763 1.25195 0.218115
314 2 -0.724561 -2.76143 -1.98683 -0.0661912 0.171033 -0.00605006
215 2 -2.27893 -1.4755 -1.14546 0.884466 1.7765 -1.19479
275 2 -2.58361 -0.727379 -0.702405 -1.20518 -0.122018 1.3663
24 1 -2.83353 -2.85366 -2.14617 0.317005 0.713723 0.838923
136 1 -0.518096 -1.35168 -0.80913 -0.278242 0.616286 -0.734234
37 1 -0.823529 -0.926526 -2.94164 0.448974 -0.962729 0.11734
173 2 -3.31463 -2.47777 -2.16419 0.0782413 -0.00185879 1.24105
454 2 -0.782081 -0.810525 -0.774376 -1.13512 1.36794 -0.910175
39 1 -1.2831 -0.436232 -0.892011 0.355782 0.212731 -0.0578301
350 2 -2.84017 -0.844324 -2.17504 0.298832 -0.82114 -1.52277
265 2 -0.504581 -1.3843 -0.267625 -0.093478 -0.722186 -0.438118
234 2 -0.694871 -1.52029 -2.89334 -1.20819 -2.29755 1.02273
442 2 -0.863867 -1.50595 -1.73169 0.0673232 -1.18024 0.0239337
451 2 -0.700355 -2.38635 -2.79574 -0.268431 -0.00550042 -0.221725
399 2 -2.3729 -1.61209 -2.22673 -0.329599 -0.826356 1.2648
186 2 -1.20751 -0.154154 -1.36987 0.914549 0.319953 0.161172
18 1 -1.38429 -1.74815 -1.84495 1.1483 0.32827 0.370845
13 1 -2.75719 -0.28505 -2.01716 -1.00033 -1.11699 0.14336
10 1 -0.386944 -1.95525 -2.6896 -0.492592 0.183726 0.403302
332 2 -0.448024 -1.92242 -0.894526 1.56388 0.583081 -1.19552
103 1 -3.29052 -2.07057 -0.341863 1.47269 1.22713 -0.166557
25 1 -2.14134 -2.08999 -2.54511 0.232842 0.927578 -0.540895
214 2 -1.22131 -3.15484 -2.57928 0.21987 1.01773 -0.805414
376 2 -2.53007 -2.91809 -0.844638 0.0573271 -0.805139 -0.214551
266 2 -1.94802 -2.14698 -3.0834 1.29123 -0.0318518 -1.39514
422 2 -1.47563 -0.727172 -2.44146 0.777388 0.43366 1.8518
272 2 -1.24275 -0.845426 -3.25822 0.711725 -0.59798 1.29173
126 1 -1.54317 -3.22278 -3.02822 0.478775 0.359165 0.627625
26 1 -0.361889 -3.12102 -0.219011 -0.728798 1.37605 0.592463
66 1 -0.629994 -2.97066 -2.49762 -0.145352 0.804807 -0.63743
220 2 -1.7617 -3.16957 -1.27106 -0.579484 0.465831 0.324353
23 1 -1.78048 -0.589081 -3.26193 -0.914773 -0.564795 0.649457
225 2 -3.13611 -1.31475 -1.50846 1.60535 -0.981449 -1.86132
3 1 -0.184919 -0.153207 -2.75239 -0.588332 0.228823 -0.718869
242 2 -2.41029 -2.5759 -2.42918 -1.04519 0.471203 0.280529
192 2 -0.994709 -2.73306 -0.959309 -0.920356 -0.469909 -1.12879
194 2 -0.122395 -1.13712 -1.18451 0.529433 0.416155 0.589979
340 2 -0.309195 -0.686201 -2.92966 -1.11439 1.30632 0.223854
226 2 -2.13532 -0.255354 -0.101237 1.20371 -0.564174 -0.698786
169 2 -1.47181 -2.00727 -1.33932 -0.101409 0.00575489 -0.909986
4 1 -0.997026 -2.18041 -0.944797 -0.307063 -0.258352 -0.840508
142 1 -2.30625 -3.2375 -1.28573 0.398608 -1.25498 -0.437176
200 2 -2.77761 -2.21626 -1.45811 -0.91548 0.474638 0.368268
97 1 -2.44332 -2.02103 -1.04575 -0.713336 0.516751 0.831736
238 2 -1.23805 -2.10097 -0.399871 2.60989 -0.303837 -0.373173
20 1 -2.1848 -0.867565 -1.13866 -0.322376 -1.67253 -0.0837962
199 2 -1.62265 -2.034 -2.26736 -0.353262 -1.3184 2.09635
478 2 -2.37912 -0.565552 -1.59288 -0.0581513 -0.0662558 -0.56694
256 2 -3.27307 -1.55815 -2.37629 0.705637 0.847485 0.304844
171 2 -2.7703 -2.07634 -0.535539 -0.0161477 0.780455 1.43883
322 2 -1.65723 -0.873982 -0.915361 0.145141 -0.517923 0.0294268
6 1 -1.26232 -3.24769 -1.0927 -0.738519 -0.418844 0.389354
155 1 -2.84043 -1.38647 -1.99893 0.0239151 0.034127 -1.55628
17 1 -2.64526 -0.583508 -0.176067 -0.671576 -1.07873 -0.705237
460 2 -1.92369 -0.0635548 -3.03155 0.279652 -0.378768 0.375166
439 2 -2.48918 -3.03005 -1.77416 -0.279703 -1.09522 -0.494227
327 2 -3.12119 -0.249114 -0.06011 -0.564502 0.887313 0.231387
178 2 -0.559201 -0.304933 0.307776 -0.35891 -0.261797 0.307275
54 1 -0.380506 -2.93016 1.8356 -0.272674 0.751821 -2.10609
158 1 -0.76373 -1.36924 0.223965 -0.00159836 0.617435 0.542988
437 2 -3.19233 -1.52184 3.32174 -0.348935 -0.00495107 -0.718252
482 2 -1.40602 -0.0385362 0.390593 1.96402 1.42288 0.376363
333 2 -2.3923 -2.66832 1.12938 0.919564 -0.27853 -0.127138
480 2 -2.93921 -1.68873 1.47866 -0.598169 -1.09159 -1.73806
324 2 -2.31116 -0.393092 1.51325 1.43298 0.328857 -0.367544
346 2 -2.4015 -3.22534 1.85 1.26746 -1.26334 -1.12002
14 1 -2.13795 -2.30768 0.739844 0.476474 -0.583993 0.606869
384 2 -1.84509 -1.14276 0.744724 -0.986664 -0.5146 -1.00917
44 1 -2.52668 -1.65945 1.8776 0.983966 0.168088 1.72127
284 2 -1.7534 -2.32836 0.328912 -0.208798 0.340007 -0.00900073
408 2 -1.13379 -0.772742 2.08936 1.20714 -0.590047 -0.433042
260 2 -0.65385 -2.47654 2.06787 0.798702 0.0110353 -0.410372
182 2 -2.6642 -0.686464 2.20017 0.918231 -1.44558 -0.245859
36 1 -2.79682 -3.05898 2.84176 0.410603 0.235581 0.227305
76 1 -2.79806 -0.959321 2.71565 -0.874601 0.139564 0.581978
85 1 -2.54663 -2.76442 1.66353 -0.452481 -0.807543 -0.256907
294 2 -1.04637 -1.84659 0.448945 -0.365645 -1.08777 -1.10712
209 2 -2.53925 -2.69892 3.20472 -1.22442 -1.12748 -1.28069
120 1 -2.0459 -2.28779 3.11007 -0.394359 -0.609969 -0.36909
172 2 -0.260096 -2.86548 3.12303 1.08402 -0.890354 2.23249
196 2 -1.30259 -3.0327 0.821379 -0.771645 -0.94388 0.753074
43 1 -0.914381 -1.05323 1.6355 -0.489352 0.981251 -0.566321
315 2 -3.13956 -2.76326 1.69882 0.597795 -0.616463 -0.258735
49 1 -1.78288 -1.37593 1.25062 0.312415 -1.61748 -0.83316
412 2 -3.22853 -0.64555 2.88936 -0.479365 1.3163 0.731702
246 2 -2.68576 -1.09766 0.0784887 -1.05153 0.961907 -0.961264
86 1 -2.65147 -0.305322 1.1088 0.40909 -0.198685 -0.327258
216 2 -2.68632 -0.846307 0.833415 -0.514719 -0.809108 -0.177809
306 2 -2.75651 -1.49431 2.41483 0.0691425 -0.244185 1.97957
331 2 -1.74559 -0.169424 2.20003 -0.570333 -1.31704 0.669836
326 2 -0.311833 -1.2927 0.565876 -0.366813 1.93902 -1.49737
264 2 -2.36817 -0.904943 3.17329 1.32812 -0.377395 -0.852592
40 1 -1.03304 -0.245272 0.0347905 0.587928 -0.771951 0.254039
251 2 -0.635448 -1.49932 2.01297 0.300791 -0.392246 -0.581827
222 2 -0.0917168 -0.341586 1.87428 -0.76311 -0.646589 0.166421
229 2 -1.23806 -1.4598 1.43343 -0.181089 0.636916 1.41158
42 1 -2.29458 -0.287912 2.06066 -0.751804 0.543138 0.491351
228 2 -1.68017 -2.84104 3.20222 -0.486533 -0.869034 -1.30871
191 2 -0.289093 -1.91499 2.80549 -0.9982 0.910174 -0.0909374
177 2 -2.3379 -2.30563 1.95391 0.410111 -1.54123 0.237347
1 1 -1.17907 -2.27874 0.11743 0.554517 0.834376 0.297198
283 2 -0.521274 -3.30623 2.43728 -0.727012 0.0704447 -1.59666
252 2 -1.19088 -1.00213 0.150728 0.252405 0.537414 0.209507
258 2 -0.72184 -0.748708 1.22346 0.56455 -0.281433 -0.842545
240 2 -2.1052 -1.25679 1.69628 0.673836 1.59526 0.18047
15 1 -2.38072 -1.21735 0.525461 -0.162717 0.0594298 -0.801435
445 2 -2.41443 -1.77556 0.719466 0.61681 0.199503 -0.547501
218 2 -0.314125 -2.38636 0.806762 0.240025 0.857957 -1.60807
453 2 -0.621425 -3.20869 1.4463 0.858951 -0.605281 0.112864
93 1 -1.21175 -0.194943 2.33433 0.00443397 1.45501 -0.0683059
382 2 -1.86551 -1.85984 2.79265 -1.93767 0.167552 0.597881
79 1 -0.457908 -0.304641 0.910733 -0.142328 0.0326605 -0.472689
46 1 -0.163193 -1.5992 2.36952 -1.12847 -0.430648 -1.27163
319 2 -3.22335 -3.03855 2.51845 -1.52317 1.21923 -2.34258
57 1 -0.0634621 -2.35973 3.01417 0.0711075 -0.43571 -0.220957
233 2 -2.29644 -0.0475658 0.758836 -0.455884 -0.838248 2.0273
245 2 -1.08518 -0.0803117 2.82561 0.0222496 -1.58169 0.11772
280 2 -0.654848 -2.69742 0.019794 1.39143 -0.934676 1.18678
262 2 -1.9659 -3.24524 0.0427854 -0.561317 -1.92125 1.12809
274 2 -1.93716 1.21566 -1.30358 1.88978 -0.222928 2.66526
153 1 -3.2762 2.09559 -3.18226 -0.539851 -0.284199 -0.360292
289 2 -3.21323 1.42616 -0.318203 2.23469 1.06556 -0.252531
224 2 -1.31166 2.92183 -0.800118 0.206808 -0.332382 0.0132272
364 2 -1.32061 1.93242 -2.04193 -2.1252 -0.607366 0.502341
146 1 -0.713545 1.93214 -3.31044 0.0857771 0.574819 -0.389598
235 2 -1.73171 2.93984 -2.88749 1.18337 -0.422989 -0.528991
291 2 -3.30234 0.872417 -2.15791 0.686542 -1.6418 -0.626904
239 2 -0.455391 3.20242 -0.602662 1.28693 1.35116 -0.442367
404 2 -2.84722 1.45422 -1.03855 -0.919625 -0.207598 -0.287241
443 2 -1.59245 2.07323 -1.11664 -0.58054 0.445016 -0.252603
446 2 -2.57609 0.656479 -1.63688 -0.284709 0.190742 0.69524
387 2 -0.517093 1.19479 -0.127901 0.722258 -0.387812 -0.232363
72 1 -0.557317 1.08343 -1.43855 -0.0917442 0.814141 0.845565
286 2 -1.63871 0.350989 -2.04228 0.246955 0.970412 0.271787
247 2 -0.500032 1.21872 -1.97627 1.5546 0.382223 0.322024
175 2 -3.30764 0.660687 -1.1678 -0.914472 -0.717417 -0.366524
70 1 -2.65935 2.14939 -2.33177 0.781974 -0.485532 0.0198247
176 2 -2.41449 2.80001 -0.365527 1.09325 -0.345713 2.35093
92 1 -2.18556 1.01789 -1.78921 -1.39501 -0.088478 1.01341
293 2 -0.796564 1.47418 -1.11869 -0.229775 -0.59095 -0.427433
269 2 -2.35802 2.94662 -1.20964 0.179209 0.716904 -1.04482
63 1 -1.5516 2.43703 -3.18236 -1.2996 -0.0732387 0.423959
276 2 -1.93514 1.18552 -2.26669 0.27069 -0.151814 -1.41077
310 2 -1.00863 0.744416 -1.48699 0.158917 0.830288 -0.027854
167 2 -1.17071 0.0160519 -0.485339 -0.209835 -0.290344 -2.75943
277 2 -2.8882 1.88816 -2.80726 0.227738 -0.325115 -0.589288
78 1 -0.459578 2.75099 -1.96371 -0.0875955 -0.254844 -0.342625
297 2 -0.373613 2.20134 -2.08253 1.02485 -0.724685 -0.173816
185 2 -0.749391 1.80134 -2.75871 1.42311 0.0855387 0.62669
356 2 -2.14541 1.73615 -0.371347 0.201498 0.150111 0.280885
131 1 -0.373671 1.70138 -2.35247 0.432785 -0.787707 -0.65944
419 2 -0.643691 0.0730903 -2.51654 -0.218916 0.385216 0.259456
135 1 -3.16304 0.60089 -1.71019 -1.07678 0.484407 -0.818978
19 1 -2.12085 1.65077 -0.920691 -1.35826 0.123702 1.40342
307 2 -1.66104 1.90785 -3.0354 -0.845658 1.78192 -0.632137
8 1 -1.9437 0.218767 -2.48336 -0.130214 0.153574 -0.595119
187 2 -2.14308 1.98256 -2.34527 1.20385 0.466343 -2.58545
81 1 -1.22309 2.21485 -1.5467 0.573529 -0.0914207 -0.762913
80 1 -0.869065 2.67666 -0.614664 0.761527 -0.00391317 -0.00468711
112 1 -2.53812 2.52932 -0.807469 -1.32711 -0.483253 0.667565
250 2 -2.00807 0.459965 -0.711015 -0.947936 -0.846961 0.392022
56 1 -1.36428 0.496326 -0.708033 -1.09974 -0.161209 -0.780339
64 1 -0.164479 1.61073 -0.42429 -0.223649 -0.299541 1.68841
28 1 -1.72465 1.67653 -2.49428 -0.202644 -0.244929 -0.151857
210 2 -0.958557 2.48108 -0.10916 0.818378 -0.489452 -0.953011
468 2 -0.100899 0.913789 -1.00958 -0.461774 -0.550205 -1.41327
259 2 -0.474237 3.20607 -2.42032 0.261577 0.544064 0.442466
308 2 -2.95682 0.586206 -0.416916 -0.608484 -1.07411 0.979871
244 2 -0.921214 2.66774 -1.60852 0.362204 -1.11112 -0.913434
296 2 -1.28611 0.885777 -0.34267 1.14782 -0.792685 0.684519
375 2 -2.40781 2.10526 -1.09824 2.1213 -0.323971 0.906456
99 1 -1.15144 0.26319 -1.77112 1.45573 0.060058 -0.111706
189 2 -3.16876 0.0130187 -1.76321 -1.04755 -0.241383 0.537571
285 2 -2.9822 2.45433 -2.00686 2.2252 -1.40638 0.210218
282 2 -0.181228 2.11047 -3.30057 -0.137058 -0.0286454 -0.418458
465 2 -3.1664 2.45638 -0.945829 1.13772 0.105498 -1.20763
304 2 -2.49743 0.0924761 -2.38864 1.77857 -1.34181 1.10166
174 2 -0.109439 0.129053 -3.25313 -0.559308 0.234701 -0.0128149
339 2 -2.27141 1.59664 1.84095 0.170998 0.0437581 0.970286
300 2 -1.49074 0.817643 3.33068 -0.485662 1.6911 0.659394
156 1 -1.86125 1.04114 0.672299 -0.607012 0.0366992 1.12126
145 1 -2.16619 2.72998 2.67797 0.174076 0.843113 0.25211
298 2 -0.888504 1.84934 0.540529 0.892878 0.839742 0.334724
323 2 -3.26884 1.96857 2.11163 0.2182 -0.246725 1.04321
208 2 -0.987376 1.53444 3.14828 1.30264 -0.252727 0.581289
430 2 -1.84652 1.5735 2.74071 -0.754627 -0.63587 0.0411794
83 1 -1.53684 2.64056 1.80082 1.32623 -0.636698 -1.19502
273 2 -0.465506 0.940074 1.71441 -1.14225 0.20181 1.99646
183 2 -1.12388 0.989014 2.47524 1.26255 0.410738 -0.0361768
125 1 -0.818832 2.41445 0.486869 0.841439 -1.29932 -0.252415
84 1 -2.42879 2.10925 1.71454 -0.42416 0.288633 -0.381762
138 1 -3.14199 2.43223 1.04376 -1.35672 1.07632 -0.868299
337 2 -2.19214 1.47758 0.531969 -0.394208 -0.886602 1.00921
317 2 -2.56035 0.447439 2.99143 0.741584 -0.261305 -0.873926
90 1 -3.20464 0.351985 0.0148487 -0.558917 1.08348 -1.51434
390 2 -3.10942 2.01538 2.9807 0.822669 -0.263469 -0.632295
152 1 -0.382222 0.688335 1.17861 -0.42771 -0.475616 0.20101
489 2 -0.256996 0.593064 2.46374 0.654406 0.436995 -0.209743
325 2 -1.36736 3.13763 1.63299 0.752123 -1.00736 1.69799
302 2 -0.275166 2.40511 0.559051 -0.152664 1.6467 1.6637
268 2 -1.017 0.233892 1.97838 0.0451558 0.767234 -0.784881
62 1 -2.49821 0.677848 2.45557 -1.47669 0.047344 0.296495
254 2 -2.65947 0.133344 2.1515 -1.25466 -0.896526 0.365765
493 2 -1.14728 2.87947 0.712886 0.272663 -0.954274 0.0672958
150 1 -0.749235 1.20843 0.40255 -1.12776 0.84727 -1.01487
335 2 -0.987809 2.42961 1.97433 -0.896324 -0.88069 -0.925482
91 1 -3.104 1.62169 2.59496 0.943363 0.847946 -1.17871
427 2 -1.87614 2.5141 3.08135 -0.0425392 2.54054 -0.00700844
330 2 -2.70677 1.22958 2.59567 -1.37918 -0.25916 2.04258
341 2 -1.97168 2.43826 1.57783 1.82811 0.110638 -0.113348
271 2 -1.33676 1.47876 1.66712 1.01367 -1.32755 0.286311
395 2 -0.0418999 2.89298 3.084 -0.595585 0.896732 -0.376871
68 1 -3.19901 1.76894 0.114283 0.355485 -1.40956 1.71941
501 2 -2.48941 2.38804 2.26394 0.671238 0.4253 -1.49869
74 1 -1.90457 1.14147 1.73199 -0.294425 0.290833 0.435261
109 1 -1.47178 1.18887 2.87093 0.957159 -0.596985 0.998081
318 2 -0.895741 3.32899 3.24394 0.82099 -0.70658 1.06313
123 1 -0.760258 0.720783 2.14771 1.13993 -0.893872 0.715534
345 2 -0.290842 1.03443 0.716197 -0.516676 0.328823 1.18924
316 2 -1.69392 2.95567 2.30646 0.096511 0.530652 -1.70106
267 2 -2.72692 3.26186 0.578252 1.67508 1.49203 -0.0870889
450 2 -2.74547 2.07358 0.241641 -0.446304 -0.173136 1.62471
436 2 -2.77048 2.11813 1.28735 -0.976973 1.22219 1.35571
313 2 -1.2758 1.00069 0.679444 -2.00728 0.799966 -0.655976
311 2 -2.9439 0.889702 0.798293 -0.252561 -0.683271 0.88888
499 2 -0.654218 0.222212 1.01397 1.29047 0.259043 0.00144181
336 2 -1.98838 0.784627 2.21066 -0.698288 0.500568 -0.0911228
447 2 -1.90825 0.809478 1.26263 0.496268 0.373681 -0.683743
12 1 -2.22208 1.91451 0.193339 0.0556793 -0.37418 -0.00449457
164 1 -1.07067 3.28511 1.13631 -0.576096 1.39999 -0.279629
281 2 -2.07884 0.594882 0.200809 -0.0788614 0.696543 0.205569
5 1 -0.414323 3.30616 2.98864 0.423489 0.260126 -0.309487
459 2 -1.02354 2.41907 3.21239 -0.903588 -0.473759 -1.90799
464 2 -2.53278 3.17827 2.66966 -1.81702 0.123805 -0.13766
34 1 -1.95052 0.0714574 0.34403 1.0657 -0.107334 -0.289982
448 2 -0.101953 1.29471 2.91458 -0.868589 0.0164994 1.6867
328 2 -2.09211 2.48177 0.346441 -1.2165 0.911053 0.279365
52 1 -2.42542 2.9268 0.176475 -0.468015 -1.37757 0.625529
483 2 -3.1184 0.00793168 1.09562 -0.740772 2.01122 -0.122356
102 1 2.69046 -2.72484 -3.24094 -0.652151 -0.41763 0.0577046
113 1 1.58904 -0.0912704 -3.14044 -1.26383 -0.875524 -0.246864
428 2 0.254982 -0.18956 -2.42229 0.0480571 -1.62044 0.342288
378 2 1.75566 -0.764744 -1.57899 2.11405 0.634049 1.62637
362 2 0.0422108 -2.0584 -2.25743 -0.236843 1.5711 0.757362
492 2 2.96428 -0.250294 -2.93795 -0.878533 -0.219047 0.879148
16 1 2.18651 -1.01616 -2.95435 0.229694 -0.277041 0.113732
367 2 0.573548 -1.65898 -1.66075 -1.03788 0.45609 0.93977
365 2 2.69828 -1.31591 -3.16109 1.93808 -0.29702 1.31862
212 2 3.14288 -2.55973 -0.255043 1.0145 0.502058 0.104953
398 2 1.34063 -1.01104 -0.190525 1.8389 0.696272 1.16717
101 1 1.93669 -2.84164 -0.224584 0.300995 0.847325 0.290096
124 1 3.14628 -1.39881 -1.16444 -0.33291 -0.285914 0.11834
108 1 1.82589 -1.36184 -0.357962 0.442779 0.147351 -0.253812
413 2 3.17299 -1.07409 -0.693878 -0.60403 0.990937 -0.746487
349 2 2.20537 -1.11904 -0.643281 -1.66521 0.825722 1.35113
456 2 0.615563 -3.17481 -2.33693 0.557017 -1.25375 -0.0840752
373 2 2.66547 -1.19518 -1.3896 -0.171669 0.36705 0.919399
170 2 2.15148 -0.988454 -2.39902 -0.676864 0.245122 0.481016
96 1 1.73079 -1.10244 -2.0153 0.000295691 0.124217 -0.0294791
128 1 1.38452 -2.23105 -0.864994 0.036552 0.205235 -0.266314
355 2 2.51317 -0.148147 -1.12803 -0.725129 0.36438 -0.355938
217 2 2.13851 -2.74604 -3.02644 -0.228083 1.27039 1.33873
406 2 1.26174 -1.2315 -2.29637 -0.0592657 0.360712 -1.07548
100 1 1.69718 -2.24414 -1.90311 -0.58858 -0.112718 0.0815736
423 2 1.40395 -2.96699 -0.0345536 -0.974971 -1.25351 -0.571757
371 2 1.53731 -1.59567 -0.92048 -0.449639 -0.343018 -2.20269
11 1 0.644496 -2.23611 -0.0751886 0.945156 0.46283 0.639421
27 1 0.325656 -0.142663 -1.59533 -0.258695 -0.671853 0.609577
203 2 2.42159 -3.15569 -0.321469 -0.141066 -1.34554 -0.91919
353 2 1.19537 -0.192768 -0.610396 -0.878358 -0.537299 0.0787064
377 2 1.4241 -2.39117 -1.38685 -0.167007 -1.98281 0.429817
416 2 1.80796 -1.69275 -1.86224 0.0144159 -0.856474 1.00719
380 2 2.23964 -3.26897 -1.38773 1.01983 -0.719119 0.919537
38 1 2.97918 -3.09212 -0.328356 -0.0397621 -0.23162 0.427942
110 1 0.953017 -0.658306 -0.387677 0.0584965 0.672651 1.23894
184 2 3.18339 -3.12753 -3.24323 0.500283 0.722186 0.785593
30 1 0.463887 -1.09769 -1.31566 -0.985199 0.289266 0.537396
358 2 1.12611 -2.18671 -2.30821 -1.54421 0.031136 -1.0097
415 2 1.16556 -0.305968 -2.73579 -0.722408 0.268462 -0.68179
206 2 1.93092 -2.48206 -0.661067 -1.46622 -0.26537 -0.335637
426 2 2.89411 -2.23021 -3.27808 -0.16102 0.107116 -0.440412
35 1 2.27403 -0.887936 -1.1481 0.384306 0.25583 -0.272488
111 1 0.72384 -1.77322 -2.21684 0.181379 -0.586142 0.683304
168 2 0.891451 -2.26256 -0.581165 0.142792 -0.0542591 -0.222793
107 1 1.71959 -3.05681 -3.25695 0.445997 0.035476 -0.920205
255 2 3.2051 -1.86744 -0.853172 1.49713 0.892213 -0.55363
211 2 1.34428 -3.16904 -2.86183 0.0415433 0.682244 -0.261428
457 2 0.562822 -0.670564 -1.62962 0.923737 -0.811473 0.904965
181 2 0.687348 -0.925374 -0.801238 0.547635 0.5006 0.394042
227 2 2.92761 -3.19051 -2.36255 -0.744277 -0.596977 0.122929
354 2 2.11271 -2.57201 -2.08587 0.157542 -0.140707 1.38136
368 2 3.12798 -3.33769 -0.828452 1.02005 -0.434136 -1.42953
425 2 1.90041 -0.567337 -3.16128 0.627646 0.0405606 -0.238399
379 2 1.81676 -1.38247 -3.12617 -0.0347817 -0.204094 1.58123
231 2 1.42286 -3.3452 -1.84753 0.991598 -0.241245 1.90107
402 2 0.0018603 -2.05637 -3.18087 0.801953 -0.351008 -1.07639
127 1 0.265204 -0.569386 2.23646 0.306982 -0.15087 0.392651
386 2 3.04788 -3.19791 1.12477 1.08564 0.0143123 0.668774
188 2 2.85211 -1.30339 1.88068 1.11485 1.14736 -0.581758
50 1 1.12846 -3.3182 1.18584 -0.562892 -0.480998 0.055247
205 2 0.501493 -0.732515 0.0867801 1.05051 -1.372 -0.390502
411 2 2.12299 -0.85978 0.750608 0.349477 1.03866 0.847151
257 2 1.67852 -1.73858 0.93964 -0.690003 0.764079 1.06444
88 1 2.54398 -0.61823 2.56416 0.130314 -0.0235522 0.15822
389 2 1.06631 -3.23168 2.51064 -1.99132 -0.722055 1.2767
407 2 2.03179 -2.12035 1.74552 -2.12411 -1.04857 -0.862016
420 2 0.402792 -2.47285 2.73503 -2.8808 0.810835 0.612121
463 2 1.03878 -0.576708 0.871242 1.1538 0.0273326 1.45185
45 1 3.11936 -1.66707 1.49581 -0.182132 0.676199 -0.743225
115 1 2.9267 -1.49179 0.469903 0.0621749 0.80631 -1.50379
369 2 1.35431 -0.679959 2.69636 -1.0732 -0.31406 0.20883
418 2 0.681316 -0.712183 1.82449 -0.806969 0.0537195 -0.433793
121 1 1.81304 -1.68162 1.48652 -0.484764 0.00926291 -0.983333
65 1 0.551944 -0.284145 0.790261 0.261783 0.574679 -1.15716
401 2 3.03871 -1.41619 1.02274 0.679232 0.129329 -0.788569
157 1 0.702166 -2.81079 2.26814 1.21986 1.28306 -0.291803
95 1 0.978157 -1.89078 0.926513 0.919846 -1.63039 0.141642
118 1 0.242015 -1.22214 0.367532 0.229948 0.170014 -0.566917
219 2 2.06564 -3.00718 1.26711 1.6401 -1.27982 -0.983436
116 1 1.82419 -0.637528 1.78229 0.20856 0.115579 -0.856965
241 2 0.833768 -1.43183 2.40677 0.642982 -0.393198 -0.228212
9 1 1.99318 -2.02015 0.522538 -0.659146 -0.782078 -0.176839
119 1 2.1003 -2.69205 1.72586 -0.461513 -1.33054 -0.392691
253 2 0.950121 -2.16124 0.439724 -0.0875866 0.763788 -0.526446
232 2 2.76534 -0.279754 0.904331 0.309342 0.408185 0.218357
104 1 2.55649 -0.608062 0.51342 -0.655083 -0.333282 0.0598853
484 2 1.1249 -2.42621 2.20465 0.379195 0.666068 0.00319429
405 2 0.958894 -1.87606 1.46717 1.01811 1.71052 0.146044
117 1 0.800114 -1.80616 2.03833 -0.0599538 -1.29749 -0.156465
33 1 0.158329 -2.902 0.647265 -0.552948 -0.418466 -0.545253
243 2 2.55274 -2.94913 2.91705 0.388341 1.02374 -0.380185
391 2 2.48378 -0.18463 2.91535 2.36122 -0.279982 -0.489683
383 2 3.30722 -1.82206 0.211574 1.72046 0.959335 0.600487
417 2 1.904 -2.71424 2.22073 1.43395 -1.48101 -1.16701
148 1 1.53983 -2.44289 2.54737 -0.66952 1.11953 0.450191
309 2 2.95253 -2.24198 1.37253 -0.936457 -0.81142 0.353672
396 2 2.02823 -2.60243 0.348299 0.176858 -0.437362 0.533083
479 2 1.74403 -1.18255 1.87512 0.626917 -0.154668 1.39131
48 1 2.06013 -3.08398 0.750162 -0.84886 -0.921254 -0.774529
393 2 2.28109 -1.04085 2.75728 0.447214 2.12193 -2.0861
481 2 0.174894 -1.85483 2.03522 -0.908131 0.770165 -0.813948
409 2 1.18153 -2.77925 1.28075 -1.17333 -0.293695 0.110193
295 2 2.31249 -0.483996 2.07938 -2.53908 -0.758284 1.8736
223 2 2.79423 -2.86092 2.01618 -0.0234746 -0.829731 -1.07943
261 2 0.0354048 -1.0653 2.4576 0.304659 -0.160698 -0.945906
114 1 2.19693 -1.6129 2.51139 1.89051 -1.16287 0.247725
195 2 2.47235 -1.77542 0.604654 1.07711 0.702759 -0.759675
494 2 0.503424 -0.20709 2.59735 -0.641681 -0.878636 -0.178185
472 2 1.77346 -1.91666 2.61392 -0.484076 0.265587 1.0335
498 2 2.973 -0.966441 0.22828 -1.29912 1.50989 2.17945
421 2 2.6796 -1.89204 2.68167 0.252733 1.20734 -0.0354375
263 2 0.583338 -3.23037 0.740051 0.0149338 0.82821 0.513185
374 2 0.694628 -1.2489 3.32002 0.602498 -0.690435 0.162331
47 1 1.12949 -1.1425 2.88017 -0.0388197 0.289542 -0.047029
51 1 3.05926 -2.8139 1.53503 -0.154663 -0.606808 2.08582
487 2 0.559684 -1.32298 0.801582 0.0171517 -0.0772625 -0.819314
500 2 1.56623 -0.284879 1.42097 0.124474 0.970052 -1.21817
32 1 2.84177 -3.16826 2.50608 1.96602 -0.158162 0.36184
248 2 0.0773651 -0.507624 1.00441 1.12704 -0.172777 -0.919707
467 2 0.188027 -2.93124 1.98938 -0.0308229 0.901922 0.308441
105 1 1.0833 -0.205787 2.64183 -0.852024 0.488694 0.98403
388 2 2.37001 -0.272143 0.059216 -1.01177 -0.384323 -0.268522
490 2 1.52451 -2.75961 3.04092 -0.791291 0.559303 -1.29084
236 2 0.346426 -2.69676 0.107013 -1.30065 -0.968466 -0.141719
359 2 1.8354 -1.7546 0.0481385 -0.299169 -1.6304 1.36358
22 1 2.91509 -1.68157 3.18982 -0.998442 -1.41307 0.898114
197 2 3.22452 -3.29485 0.111011 -0.459354 -0.041675 0.666087
351 2 0.387069 -1.61875 0.00480889 1.46787 0.156897 0.136402
130 1 1.12151 2.69568 -0.566672 0.50083 -0.863343 1.44736
452 2 0.855536 1.63403 -2.70795 -0.564412 -0.452567 1.93817
334 2 2.0613 0.685912 -0.248509 1.06142 0.0804513 0.634349
190 2 2.1097 2.35322 -2.15776 0.210016 1.23724 2.31873
41 1 1.19449 0.641218 -1.81392 -0.793813 -0.0275707 -0.505232
352 2 1.23116 2.00875 -1.96114 2.11117 0.894254 0.0194478
139 1 2.76368 3.06927 -1.16927 0.541211 -0.171331 -0.357547
29 1 3.07053 2.2336 -0.729093 -0.414128 0.32194 0.735261
485 2 2.84149 2.84476 -1.71916 0.480228 1.4049 -0.136235
21 1 1.76549 3.15096 -1.45447 -0.207048 0.34112 -0.335032
201 2 2.68043 2.66657 -0.782691 0.730319 0.675158 -0.109638
366 2 1.86058 0.961438 -1.06106 -0.821256 0.0757664 -1.49786
495 2 2.04879 1.13086 -2.87166 -2.26793 1.55105 -0.704555
159 1 2.36888 2.24045 -2.63691 -0.751633 -1.45031 0.256408
106 1 0.764917 0.0976571 -2.52701 0.278942 0.881215 -0.469433
73 1 0.159179 0.561516 -0.667798 -0.324006 0.150151 -0.178609
414 2 1.64775 2.60688 -1.39112 0.534885 -1.01052 -1.28717
434 2 0.715931 0.657592 -2.78178 0.665674 -0.805769 -1.32559
98 1 0.564186 1.14807 -2.5695 -0.178759 -0.24149 -0.535056
198 2 0.0443074 2.83388 -1.6688 -0.124303 1.5464 0.993255
410 2 1.17288 1.49351 -1.12024 -0.156948 1.21777 0.305889
179 2 2.49126 2.76394 -2.8336 -1.16205 0.194175 0.769729
432 2 0.907138 2.61796 -0.0530126 -1.21733 -0.474855 0.708756
61 1 1.83655 1.50901 -3.24894 -0.765895 0.524162 0.464879
438 2 0.0342746 1.28577 -2.584 -2.2474 2.31376 -0.505166
397 2 1.98088 1.98614 -2.99261 -1.44231 0.446664 0.308169
144 1 1.27591 0.931894 -0.840505 -0.842588 0.348679 -0.135839
435 2 0.377979 1.9086 -1.61589 0.124571 -0.467771 0.589669
202 2 0.735562 2.61784 -0.985867 0.745314 -0.063421 0.36043
249 2 1.68851 0.916963 -1.91508 -0.35865 1.74413 -0.913576
449 2 2.59995 1.01229 -1.85344 1.08488 1.01864 1.1926
230 2 0.135516 0.238502 -0.217805 -0.179281 -0.0966385 -1.96892
166 2 0.771262 1.18938 -2.03804 -0.129197 -0.157085 -1.87588
2 1 2.30595 1.08052 -0.564475 0.398866 1.49299 -0.536499
55 1 2.13008 1.17777 -1.64944 0.0653716 0.662487 0.730149
204 2 0.937972 0.605482 -1.2312 -0.106803 0.69538 0.308922
497 2 2.12463 0.290096 -3.11671 -0.638662 -0.15683 0.818441
458 2 2.92449 1.9928 -2.25253 1.04333 1.38167 0.69317
140 1 1.09463 2.18944 -2.52345 -0.61716 0.316409 0.67271
133 1 1.11718 3.29489 -2.32158 -0.345362 0.970566 -0.425895
141 1 0.359452 2.43212 -1.36333 -0.098411 -0.937677 0.683873
347 2 2.83945 1.09913 -0.57691 1.48028 0.121368 1.13071
278 2 3.02876 0.871017 -3.07033 -0.498075 -1.13632 0.354935
53 1 3.262 3.16147 -2.69584 0.489431 0.0883242 0.777513
132 1 3.18203 2.35044 -1.90534 0.245839 -0.630152 -0.520152
147 1 0.893873 1.65823 -1.66395 -1.04485 0.40311 0.272557
488 2 0.270696 1.43291 -0.130553 -0.655669 1.08169 -0.980151
7 1 1.73075 2.21915 -1.76008 -0.625118 -0.517934 0.50784
429 2 1.06576 2.7403 -2.49804 -0.629839 -0.129948 1.32175
440 2 1.91133 1.70524 -1.55381 2.76087 -0.573796 1.60543
292 2 1.98142 1.74938 -0.232611 -0.097681 0.432934 -1.24855
466 2 2.94539 1.76626 -3.16993 1.65251 -1.29103 0.394334
279 2 3.06206 1.78153 -1.03144 0.694971 -0.288238 0.542832
60 1 2.99822 0.901956 -2.53151 -0.0998129 1.55518 -0.681572
301 2 1.17498 1.04712 -0.315925 -0.805616 2.33074 0.133211
474 2 3.22014 2.19191 -0.163115 1.84722 0.296795 0.650648
469 2 3.34399 2.66416 -2.96659 1.67461 1.86662 -0.97783
180 2 0.859508 0.223705 -1.95095 -0.23861 -0.549202 -0.950574
71 1 3.32745 1.20636 -0.801572 -1.13904 0.0755895 0.147887
361 2 1.60884 2.96757 -0.6998 0.801044 0.903623 -0.775763
343 2 0.193426 0.145111 -1.11964 -0.817341 1.30716 -1.33082
122 1 2.6365 0.0370682 -3.2646 -0.00318146 0.725615 -0.000824946
193 2 1.15516 1.86579 -0.0365414 0.554351 1.22486 0.0703183
303 2 0.0358663 1.91791 -0.886495 0.884598 0.468452 0.811042
59 1 0.839508 1.40234 -0.0394802 0.475523 -0.275467 -0.611325
134 1 1.17867 1.18467 2.63117 0.199719 0.474892 -0.493421
290 2 0.312045 2.15684 1.5642 0.0581239 0.962793 -0.319721
475 2 3.00258 2.15977 1.35351 1.02237 -0.048443 0.0330205
320 2 1.30175 2.42232 1.28644 1.43322 -0.898996 1.35098
360 2 2.51639 2.26535 2.95604 0.498436 -1.10233 -0.173482
129 1 2.28013 0.279227 0.130711 0.0649317 -0.931635 0.133347
151 1 1.51148 0.288934 1.68997 -0.859206 -0.458911 0.709167
491 2 1.42832 0.0690478 2.22697 0.613431 0.395532 -0.340556
87 1 3.26925 1.10304 0.958456 0.0454306 -0.887932 0.313988
270 2 1.66754 2.29027 0.539907 -2.17589 -0.662656 -0.245145
431 2 2.02755 0.368909 0.650635 -0.228668 -1.07 1.2372
165 1 1.76137 2.63944 1.01964 0.507337 0.238255 0.0266363
476 2 2.10664 2.27009 2.17729 -1.46491 0.946048 -0.166847
321 2 2.51631 1.43842 1.78559 0.384493 -0.606455 1.13807
163 1 0.736931 0.756979 0.94146 -1.21594 0.699375 0.864616
213 2 0.718509 2.23015 0.759895 0.369491 -1.28558 0.891895
473 2 1.03706 1.6925 2.42688 -0.997683 -0.296741 -1.00867
381 2 1.6848 1.07049 2.25934 0.401167 0.176709 -0.960332
161 1 0.832948 2.11058 1.27882 3.01426 -0.421892 -0.166467
162 1 2.17024 1.02132 1.98012 0.532649 0.344241 -0.650162
403 2 1.91929 1.28683 0.618486 1.02922 -0.0526526 0.756602
154 1 2.08703 2.61975 3.0334 1.18468 -1.22785 -0.045686
433 2 1.89375 3.12118 3.26676 -0.73561 -1.46256 -0.932427
342 2 3.0596 0.088302 1.78716 0.3045 0.851079 -0.704612
67 1 1.11973 2.26309 0.354689 0.49504 0.260695 -0.913802
338 2 2.48674 0.632344 2.23602 -0.205401 0.266421 0.516553
392 2 2.24751 2.67218 1.35307 2.46887 -1.26168 -1.52914
31 1 3.13875 3.2572 0.623112 0.354544 1.61326 -0.115823
444 2 2.62525 3.04798 2.39413 0.587996 -0.195328 -2.02365
470 2 0.736478 0.838117 2.56442 -1.23775 0.268656 0.763468
344 2 0.785772 1.20503 0.598066 -0.769922 -1.69646 0.528911
160 1 2.28322 2.74232 1.90596 -0.569187 0.571978 0.810915
299 2 1.93548 0.639094 1.56816 -0.224857 -0.0852375 -1.68161
363 2 1.13049 0.451015 1.25114 -0.144833 -0.159401 -0.273585
471 2 1.45991 1.26666 3.10763 0.552598 -0.94551 0.633444
357 2 1.73975 3.00603 2.06378 0.148154 1.24058 0.399529
89 1 2.97525 0.389527 2.25886 -1.15286 -0.910271 -0.466842
207 2 0.930232 1.57798 1.37881 0.370592 -0.826074 -0.748841
288 2 3.13856 1.27291 2.63007 -0.37321 0.245095 2.89781
477 2 0.693804 2.09161 3.08006 0.651528 0.112934 -0.435312
221 2 0.176879 0.633019 1.19733 -0.541744 -0.204389 0.763578
348 2 2.50723 2.08279 0.431141 0.171233 0.937458 0.638277
237 2 3.30762 0.436376 2.67771 -0.617834 -0.668217 -1.64993
400 2 2.51419 3.34474 0.57275 -1.00727 -0.2184 -1.49696
461 2 0.242114 1.42648 2.01682 -1.65246 0.142279 -1.78452
58 1 3.06315 0.0674065 1.22244 -0.165226 0.62574 -0.577593
462 2 3.15617 2.71315 0.731949 0.887112 0.0561057 1.21034
82 1 1.09259 2.20136 2.68174 1.08444 -0.148422 1.00688
312 2 3.34895 1.28294 1.54357 -1.06032 -0.266598 -1.11008
486 2 0.628441 0.254335 0.524232 -1.95691 -0.484611 -0.53019
329 2 0.886736 2.6025 2.30303 0.208998 1.13137 -0.271343
143 1 2.93764 1.78463 1.79987 -0.661286 -1.65789 -0.197758
455 2 1.57174 2.30138 2.96357 0.444106 -0.675089 0.328429
372 2 1.58195 3.14936 0.883041 -0.30294 0.894438 -0.424632
149 1 1.17883 3.07449 2.15842 -1.27802 -0.0999838 -1.2237
137 1 0.208144 1.07919 2.47458 -0.599818 -0.19559 -1.4621
77 1 2.73485 1.73627 2.96306 -1.08893 0.399496 0.0828352
370 2 0.870672 3.30925 1.72019 -1.9645 -0.767993 -0.325549
496 2 2.9523 0.62411 1.08032 -0.162043 -1.26744 0.910764
69 1 2.03281 1.83936 0.346624 0.0318804 0.755236 -0.620031
394 2 1.34729 0.0995739 3.11315 -0.605475 -1.38493 1.226
75 1 0.182054 2.3725 3.08798 0.443048 0.414454 -0.855337
94 1 0.22599 2.01709 2.1253 -0.16965 -0.591697 0.0422032
441 2 2.23507 1.49351 2.94636 1.36276 -0.669037 -0.149317
385 2 3.22727 1.50184 0.579823 0.862478 0.957373 1.32408