ITEM: TIMESTEP
0
ITEM: NUMBER OF ATOMS
501
ITEM: BOX BOUNDS pp pp pp
-3.3572466328349999e+00 3.3572466328349999e+00
-3.3572466328349999e+00 3.3572466328349999e+00
-3.3572466328349999e+00 3.3572466328349999e+00
ITEM: ATOMS id type x y z vx vy vz
136 1 -0.585802 -1.82951 -0.824893 0.242727 0.120668 -0.095332
215 2 -2.40416 -1.47923 -1.19062 -0.0596124 0.717832 1.04262
200 2 -1.75613 -2.65492 -1.22138 0.0109526 -0.105932 0.394411
103 1 -3.16456 -2.18808 -1.1475 -0.077044 -0.605857 1.09475
174 2 -0.927116 -0.762398 -3.14057 -0.527079 0.184673 -0.499926
266 2 -1.92222 -2.64967 -3.29846 -0.432668 -1.19102 -0.640068
184 2 -3.17316 -2.77591 -2.19949 0.0401205 -0.0291784 0.417739
24 1 -2.26651 -2.85364 -1.26394 0.719301 0.275616 -0.43948
97 1 -2.13017 -1.56967 -0.717048 -0.582486 -1.14343 0.113864
351 2 -0.187441 -2.21401 -0.806523 0.211507 0.241802 -0.439218
6 1 -1.11473 -3.23732 -0.108764 1.30422 -0.19562 -0.460246
169 2 -1.65293 -1.96217 -1.76882 0.274158 0.95932 0.345169
66 1 -0.841429 -2.98787 -2.18354 -0.257961 -1.53642 0.892277
350 2 -2.87648 -1.08077 -2.96677 -0.277115 -0.0625839 0.724349
442 2 -2.12339 -1.32732 -2.4594 -0.871066 0.662463 0.26408
238 2 -1.79857 -2.01762 -0.528143 -0.191383 -0.202827 -0.525011
322 2 -2.2029 -0.668576 -1.50306 -0.722529 -0.478254 0.211208
167 2 -1.8497 -1.08425 -0.778129 -1.04648 -0.543483 -0.0199171
234 2 -0.349022 -2.11942 -2.64497 1.20526 -0.427909 -0.445194
419 2 -0.925109 -0.4356 -2.25786 0.234084 0.0764398 1.18721
155 1 -3.31203 -1.58027 -2.11293 -0.0984555 -1.01512 -0.97079
18 1 -1.78848 -1.74836 -2.29016 -0.534567 0.214486 -0.568993
194 2 -0.345043 -1.44852 -1.17638 1.73658 0.497803 0.213841
286 2 -1.68959 -0.359875 -2.86178 0.129803 -0.240232 -1.19635
142 1 -2.21428 -3.31558 -2.15239 0.597374 -1.42653 0.269849
451 2 -0.263701 -2.93642 -2.30457 -0.0284621 -1.1998 0.607089
265 2 -0.747701 -1.55033 -0.376803 -0.536924 -0.733953 0.085492
428 2 -0.0959519 -0.440813 -2.51117 0.393218 -0.631681 -0.563498
280 2 -1.10597 -2.65791 -0.209521 -1.6863 0.759133 0.261706
3 1 -0.624269 -0.667954 -2.66088 1.43454 0.297935 -0.414635
225 2 -3.06416 -0.824997 -1.22064 0.22552 0.574729 -1.14255
399 2 -2.79628 -2.50046 -3.07192 0.843028 0.656665 0.904285
242 2 -2.67974 -2.49037 -1.04261 0.19866 -0.236661 0.00786685
332 2 -1.04904 -2.05939 -1.11644 0.802773 0.525777 1.04145
340 2 -0.475882 -1.17525 -2.50729 0.357264 -0.294611 -0.211135
120 1 -1.58128 -3.03363 -2.99619 -0.634725 -0.657078 0.534602
20 1 -2.60415 -1.06063 -1.4732 -0.16408 0.614256 0.404447
4 1 -1.36339 -2.34363 -1.46988 -0.448806 0.859131 0.318838
37 1 -0.653348 -1.64755 -2.7494 -0.318876 -0.686998 0.000748477
13 1 -2.59731 -0.991864 -2.4887 -0.336426 0.113591 -1.19658
186 2 -1.29349 -0.650773 -1.46114 0.209124 -0.225579 -0.11545
454 2 -1.28888 -1.74679 -2.58187 0.153456 -0.456575 -0.839223
343 2 -0.408001 -0.308818 -1.64148 -0.790921 0.711806 0.635201
439 2 -2.40006 -2.90369 -1.83495 -0.464877 0.716605 1.48555
102 1 -3.19961 -2.45991 -2.64008 0.266786 0.537072 0.217925
115 1 -3.15039 -1.55028 -0.272064 -0.384195 0.457639 -0.354679
39 1 -1.66734 -0.620465 -1.04133 0.0626206 -0.227759 -0.23735
304 2 -2.46978 -0.465805 -2.37376 -0.238614 0.190692 0.339825
478 2 -2.86805 -1.21311 -1.98519 -0.545078 -0.283025 -0.6525
199 2 -2.10167 -2.16275 -2.54685 -0.15237 -0.536362 -0.267078
25 1 -2.2796 -2.26236 -3.07479 0.24853 -0.157327 0.425515
296 2 -1.66979 -0.0812457 -0.929501 0.158832 1.40976 -0.252778
314 2 -1.21647 -2.87928 -2.62063 0.44153 0.488421 -0.622059
220 2 -1.05889 -2.61393 -1.83671 -0.051346 -0.401012 -0.0974135
255 2 -3.19517 -1.95019 -1.67754 -0.831581 -0.465701 -1.40246
99 1 -0.980484 -0.26839 -1.73235 0.198327 1.02954 -0.47442
401 2 -2.537 -1.50004 -0.331717 0.136577 -0.334215 0.845608
272 2 -0.595067 -1.6188 -3.30561 0.672572 -0.596879 -0.146181
109 1 -1.44039 -0.587978 -3.30421 -0.390867 -0.73355 -1.00754
426 2 -3.209 -1.89909 -2.59468 0.370532 0.301415 1.06908
8 1 -2.12047 -0.0724914 -2.6138 0.320919 0.813184 -0.387862
228 2 -1.98271 -3.19898 -2.64924 -0.00117133 1.23889 -0.0592115
383 2 -3.17479 -1.72581 -0.809106 -0.697134 0.0499939 -0.0307288
1 1 -1.55418 -2.29488 -0.124353 -0.408089 0.105209 0.465321
483 2 -3.3257 -1.05828 -0.152683 0.874403 -0.12393 1.02033
422 2 -2.21279 -1.75585 -3.29054 -0.19654 0.130758 0.978729
275 2 -3.35545 -0.257153 -0.507163 0.4577 -0.0732601 0.921608
173 2 -2.26379 -3.3561 -1.06378 -1.0516 0.562397 -0.273816
315 2 -3.14973 -2.94712 1.53656 0.789001 0.642824 0.536433
437 2 -3.33117 -1.10583 2.90392 -0.65951 -0.124187 0.361422
182 2 -2.48706 -0.8819 2.88352 0.844708 -0.184871 0.751067
49 1 -1.33628 -1.82405 1.55886 0.275873 0.391842 -0.202402
258 2 -0.190482 -0.938147 1.84107 0.144789 0.118611 0.295447
294 2 -1.34632 -1.89495 0.233092 0.0350741 -0.0149268 0.33549
216 2 -2.54947 -1.17536 1.40231 1.0101 0.517606 0.330769
480 2 -2.73319 -1.95943 1.72841 0.231878 -0.00967795 0.203811
499 2 -0.129803 -0.517093 0.514676 -0.196069 1.08852 -0.185515
384 2 -1.89158 -1.82112 1.499 -0.709878 0.329183 0.177398
408 2 -1.01451 -0.606564 2.15376 0.34317 0.614259 0.00362984
325 2 -0.271617 -2.65692 0.781391 -0.749865 -1.43374 0.980733
335 2 -1.19193 -2.27866 2.93037 0.123336 -0.464003 -0.427139
240 2 -1.27636 -2.18855 2.02766 0.42239 0.968837 -0.243303
221 2 -0.376461 -0.202618 1.3257 -0.245441 0.691208 0.162584
306 2 -1.99696 -2.53127 2.55548 0.879003 0.760566 -0.693154
460 2 -1.66615 -1.02411 3.147 0.972313 0.0263596 -0.508548
14 1 -2.39931 -2.45954 0.673602 -0.624065 0.146617 -0.423658
42 1 -2.41059 -0.414936 2.51499 -0.365757 0.0560522 0.794982
319 2 -3.3327 -2.89464 2.97414 -0.234084 0.382207 0.0542128
93 1 -1.3502 -0.234713 2.43008 -0.902801 -0.103047 0.571341
15 1 -2.41391 -1.70815 1.36413 -0.541256 0.370058 -0.590492
316 2 -1.01818 -2.1769 1.20255 -0.19916 -0.809369 -1.07037
53 1 -2.87366 -2.99753 3.26259 0.442141 1.3358 0.526066
85 1 -2.60909 -3.09009 1.54194 -0.299179 -0.010923 1.2527
43 1 -0.700113 -1.07769 2.01775 0.591399 -0.786889 -0.628238
251 2 -0.582251 -1.38239 2.47247 -0.214712 0.390075 -1.79883
196 2 -1.08786 -2.99764 0.989897 0.139868 -0.172879 1.09916
324 2 -2.64442 -0.469475 2.01469 -0.382435 -0.859062 0.333611
34 1 -2.38859 -0.149414 0.603753 -0.046044 0.172473 0.16901
284 2 -1.92884 -2.61469 0.302214 0.497412 -0.163989 -0.949528
44 1 -1.57433 -2.14773 2.54077 -0.254007 -0.103195 -1.03906
152 1 -0.529672 -0.240526 0.786462 0.454283 -0.388519 -0.888385
482 2 -1.87626 -0.377336 0.338012 1.11022 -0.712572 0.150701
264 2 -1.89002 -1.69066 2.58163 0.846728 -0.00470493 0.187723
493 2 -0.516421 -2.74895 1.68099 0.23948 0.359339 1.44598
36 1 -2.12891 -3.08719 2.48135 -0.690237 -0.345599 0.0420243
209 2 -2.45874 -3.12102 2.94673 1.14214 -0.497959 -0.722936
245 2 -1.23044 -0.188185 3.02323 0.743493 -0.38036 0.163766
445 2 -2.44531 -1.92366 0.743582 0.333673 -0.657728 1.21321
283 2 -0.428771 -2.94037 3.24435 1.22576 -0.227839 0.260889
177 2 -2.5153 -3.16433 2.10148 0.9151 -0.442597 -0.0138168
273 2 -1.05856 -0.391901 0.749705 1.19033 0.590546 -1.14931
333 2 -2.36636 -2.71173 1.18919 -1.0969 -0.0503806 0.14715
229 2 -1.06919 -1.31627 1.63426 -0.300589 0.130513 1.11741
23 1 -2.08451 -1.36221 2.99134 -0.832947 0.23942 0.697601
158 1 -0.949931 -1.47728 0.136719 -0.0706104 0.0802516 -0.1331
331 2 -1.82782 -0.46517 2.53051 1.25805 -0.506551 -1.01948
86 1 -2.73712 -0.625339 1.48797 -0.381879 0.0307071 -0.578603
376 2 -2.87164 -2.69744 0.470259 -0.584358 -0.240535 -0.580315
40 1 -1.32698 -0.49829 0.256775 0.259503 -0.265647 -0.0359093
164 1 -0.686929 -2.62506 1.17412 -0.131168 0.179954 -0.782857
46 1 -0.31879 -1.57666 2.90299 -0.410102 0.511337 -0.567754
326 2 -0.463636 -1.38466 0.461702 0.848189 -0.367533 0.0459606
226 2 -2.8286 -0.406893 0.30477 -0.295148 0.843937 -0.657962
232 2 -3.32809 -0.551368 1.38253 0.431876 -1.29783 0.805408
233 2 -2.4459 -0.356919 1.12438 1.25826 -0.075537 -0.0871397
252 2 -1.30117 -1.03196 0.115788 0.498023 0.10822 -1.20294
412 2 -3.22541 -0.300713 3.20395 0.764748 0.692939 0.505483
76 1 -2.95276 -0.822922 3.21407 -0.0790456 0.368319 0.448363
382 2 -1.28334 -3.31872 3.34473 -1.13669 -0.13341 1.46199
390 2 -1.64184 -3.28735 2.18837 0.539375 1.00093 0.0808798
191 2 -0.165837 -2.16794 2.90789 0.845124 0.32576 -0.333952
45 1 -3.33589 -0.528508 0.0359363 0.884861 -0.0254223 -0.322376
247 2 -0.796292 1.06638 -2.40341 0.23326 -0.783794 0.817076
250 2 -1.97516 0.590252 -1.33974 0.088675 0.29088 -0.0403634
178 2 -1.18578 0.000250134 -0.011763 0.367561 0.0191374 -0.502521
17 1 -3.12547 0.273519 -0.48803 0.532766 0.313185 -0.477701
274 2 -1.78769 0.643988 -0.431382 -0.941383 -0.215301 -0.0691079
112 1 -2.49431 2.90728 -0.855379 1.11112 0.0330683 -0.0844636
80 1 -0.338328 3.23997 -0.823644 -0.54658 0.389136 -0.168784
70 1 -3.05151 2.97483 -2.62206 0.011493 1.389 0.602705
72 1 -1.19753 1.45479 -2.24035 0.0398533 0.463015 0.360645
230 2 -0.173653 1.38988 -0.516271 -0.0345517 -0.166577 -0.255377
308 2 -3.22543 1.19531 -1.45037 -0.861906 0.671278 0.352748
276 2 -1.27455 0.229124 -1.70178 0.295433 0.553058 0.098099
56 1 -2.06333 0.331071 -0.841148 0.640841 1.02925 0.387564
224 2 -0.853034 1.97947 -0.939816 -0.164389 0.483976 0.14595
213 2 -0.190255 2.90692 -0.359259 0.242925 -0.987136 -0.0881561
202 2 -0.234283 2.85016 -1.21961 0.762774 0.624553 0.404461
131 1 -0.501112 0.941074 -2.90351 0.071418 1.11467 0.397884
81 1 -1.20485 1.89945 -1.36305 -0.539847 0.88159 0.187968
279 2 -3.24571 2.08109 -1.46326 -0.657032 0.398889 1.53348
150 1 -1.35174 0.56847 -0.0866199 0.267049 -0.637512 -0.473861
153 1 -2.85786 1.89322 -2.76666 0.222642 -0.254724 -0.0043597
443 2 -1.69474 1.74427 -1.14139 -0.425542 0.201137 -0.127425
446 2 -2.12272 0.331295 -2.17322 0.252577 -0.544329 -0.0251713
235 2 -0.50379 3.04717 -2.8557 0.0532618 0.021396 2.27987
244 2 -1.87784 3.10424 -1.80056 -0.809106 -1.98542 0.968548
307 2 -1.7153 2.35842 -3.34691 -0.563512 0.084232 0.329661
375 2 -2.46204 1.55291 -1.53834 0.904217 -0.213812 -0.811031
297 2 -0.149741 2.51418 -2.19574 0.630748 0.641801 -0.11218
465 2 -3.06007 2.81678 -0.972056 1.33956 0.814326 0.450924
198 2 -1.27381 2.42696 -1.55329 -0.427331 -0.181505 0.677446
19 1 -2.25401 1.83086 -1.07993 0.401129 0.0411899 -0.525136
187 2 -2.64965 3.0202 -2.23396 -0.319292 0.11167 0.76665
327 2 -2.59204 0.205618 -0.736452 -0.831477 -0.0428391 -0.904391
364 2 -1.55719 2.56634 -2.48296 -0.29371 1.33727 0.034207
71 1 -3.01469 1.62965 -1.72667 -0.34226 -0.024386 -0.0755574
261 2 -0.316684 0.459827 -3.2073 0.195638 -0.660621 -0.468892
92 1 -1.72151 0.564786 -1.84785 -0.718797 -0.893889 -0.147652
64 1 -0.514618 1.29669 -0.0814839 0.99144 0.0458186 0.00370901
466 2 -3.07904 1.57671 -3.17843 1.22652 1.02416 0.163942
300 2 -2.28489 0.321557 -3.08681 -1.46317 -0.830735 0.386421
28 1 -1.74024 2.15851 -2.82437 0.551068 -0.48684 0.0738648
269 2 -2.25115 2.39593 -1.01614 -0.21766 -0.790566 0.278888
277 2 -2.29359 1.91693 -2.87686 0.302195 -2.00062 0.446839
183 2 -1.38092 1.73784 -2.65259 -1.10174 0.888642 -0.382885
293 2 -0.929647 1.63806 -1.76349 1.74295 -0.408005 1.96832
404 2 -2.96071 1.56352 -2.29291 1.73235 -0.221727 1.34978
469 2 -3.00831 2.42797 -2.86962 -0.011625 0.108629 -1.03326
310 2 -1.53831 1.06792 -2.04545 0.0592551 0.802022 0.865003
78 1 -1.41204 2.76336 -1.94602 0.491894 -0.207283 -0.0228506
259 2 -1.00516 3.18297 -2.05115 -0.128952 -0.420259 0.675816
356 2 -2.32117 1.64087 -0.574546 -0.14292 -0.863627 0.389035
176 2 -2.33758 2.9008 -0.327139 0.187439 0.325947 -0.165533
424 2 -3.11351 3.35639 -3.06791 -0.689072 0.447015 0.131675
468 2 -0.0963536 0.462044 -0.918956 1.1087 -0.629064 -0.848826
210 2 -0.884098 3.32798 -0.655059 -0.28622 0.130743 0.0104187
387 2 -0.962689 0.99669 -0.212831 0.161438 -0.499065 0.0130141
126 1 -0.023518 2.76024 -2.69683 0.124919 0.674637 -0.0247064
185 2 -0.699583 1.26216 -3.29814 -0.761565 0.616856 -0.119544
12 1 -2.25139 1.86525 -0.0437352 0.390156 0.338994 1.15442
62 1 -2.21968 1.35004 2.48822 -0.333545 0.0852662 -0.467454
447 2 -1.87458 1.11996 1.07381 0.297768 -0.24186 -0.0619124
339 2 -1.47916 1.82463 1.49557 -0.49292 -0.125957 -0.000163818
192 2 -0.741011 3.31978 0.290843 0.390874 -1.08374 -0.319762
271 2 -1.12035 0.996516 1.64566 0.371726 1.07367 0.871645
427 2 -1.48381 2.5764 2.47327 0.00756364 0.078208 -0.38131
63 1 -1.52667 2.1098 2.86592 0.386228 -0.401292 0.560915
337 2 -2.22089 1.43119 0.332795 0.444481 0.227649 -1.12897
123 1 -0.943581 0.757642 2.10992 -0.84865 0.280298 -0.680451
346 2 -2.62277 3.08547 1.39299 -0.330933 -0.0108801 0.419451
489 2 -0.988512 1.11583 2.58128 -0.629942 0.279461 0.721972
459 2 -1.0041 1.95461 2.86522 -0.942503 0.787612 -0.685115
60 1 -2.55192 0.464291 3.1373 -0.305142 0.221617 -0.230018
26 1 -0.23364 3.02088 0.231042 0.964411 0.288334 0.0200398
268 2 -1.25557 0.288586 2.19376 -0.625838 -0.586196 0.37926
464 2 -0.415766 2.98039 2.96604 -1.32316 -0.922927 -0.427561
336 2 -1.97003 1.14786 1.99233 -0.939105 -0.20507 0.513304
462 2 -3.08023 2.70342 0.775814 -0.135769 -1.331 -0.0111139
145 1 -1.33635 2.9571 2.10963 0.453927 0.181254 -0.701005
254 2 -2.56962 0.054794 2.77785 -0.625587 0.31242 -0.611352
208 2 -0.384594 0.704222 2.08283 0.196401 0.373087 0.651177
298 2 -0.334374 2.52085 0.480699 -1.33898 1.32405 -0.46514
303 2 -0.775689 1.77767 0.0597522 0.858309 -0.228379 -0.317717
5 1 -0.23581 2.91223 2.38621 -0.726716 -0.845802 -0.245543
291 2 -3.07411 0.627944 3.33469 -0.350315 1.16973 -0.597656
267 2 -2.25292 3.00165 0.561163 -0.263744 -0.984 -0.636015
302 2 -0.701219 1.85418 0.957186 0.936185 0.294622 -0.239658
313 2 -1.56206 0.721455 0.410692 -0.259363 -0.23706 -0.36055
330 2 -2.6702 1.56878 2.27412 -0.450109 -0.702017 -0.43365
237 2 -3.21429 1.0693 1.80574 0.129515 -0.279005 0.13466
74 1 -1.61634 1.23159 1.56865 0.624875 -0.225963 0.0918605
156 1 -2.05446 0.932982 0.573678 0.294888 -0.155953 0.269493
59 1 -0.0590523 0.725349 0.713296 0.234004 0.832489 0.535795
436 2 -2.20377 2.31775 1.15251 0.0143869 0.245956 0.569158
84 1 -1.61826 2.32094 1.27851 0.71618 0.465643 -0.00997072
305 2 -0.165786 1.83878 1.71657 -0.227625 0.0468239 -0.056282
281 2 -2.39422 0.460014 0.591552 0.156432 -0.0065009 0.55079
146 1 -0.720689 1.50747 2.89064 -0.0779375 0.940202 -0.0584669
453 2 -0.757268 2.97089 2.16227 -0.781675 0.142639 0.194286
317 2 -2.29592 0.882473 2.83492 0.45381 0.618008 1.00199
282 2 -0.234401 1.67476 2.62631 -0.426224 -0.269172 -0.926425
430 2 -1.84855 1.66607 2.78964 0.70747 1.21007 -0.0802608
501 2 -1.47222 2.75823 1.62515 0.160601 0.162864 -0.376512
450 2 -2.75858 1.9849 0.0947157 -0.961394 -0.307568 0.00854137
68 1 -3.32164 1.92655 0.0178443 -0.538679 0.558621 0.0824654
138 1 -2.56918 2.77954 0.943038 -0.830245 -0.0651942 0.135953
341 2 -1.27762 2.4448 0.781178 0.705605 0.519043 -0.748377
125 1 -0.816414 2.17436 0.481601 0.583148 -0.48412 -0.299631
91 1 -3.22392 1.48978 2.23128 -0.941259 -0.308054 0.348371
345 2 -0.437795 0.301397 0.608753 0.933795 0.389468 -0.0549752
328 2 -1.9052 2.26679 0.09117 0.712364 0.979302 -0.608559
94 1 -0.237704 1.643 1.18459 0.17792 -0.168376 0.265226
494 2 -0.242806 0.117694 2.79318 0.480819 0.119175 0.10397
488 2 -0.143066 1.03574 0.247419 -0.550422 0.174957 0.144163
52 1 -1.97627 2.82708 0.0712832 0.400638 -0.21539 -0.122084
461 2 -0.247856 1.0724 1.11227 -0.0204099 -0.000125826 -1.10417
127 1 -0.0473525 0.043678 3.31211 0.526135 0.451104 -0.675214
262 2 -1.61512 3.27753 0.0501395 0.43715 0.166416 -0.639894
77 1 -3.30978 1.16856 3.23127 -0.291267 -0.54745 0.126295
83 1 -0.700837 3.2362 3.32258 0.735341 -0.372894 -0.677594
246 2 -3.13394 0.622076 0.0215124 0.0276395 -0.351129 -0.273221
203 2 2.29301 -2.64282 -0.410555 -0.239088 0.376789 0.279213
362 2 0.458427 -2.24428 -2.27662 -1.08633 1.61967 0.829711
236 2 0.0405153 -3.09716 -0.74119 -1.09642 0.875006 1.59877
22 1 2.50037 -2.38919 -3.15613 0.88951 -0.161252 -0.117508
122 1 3.01351 -0.0286678 -3.31852 -0.355673 0.0471068 -0.400302
100 1 1.86391 -2.20832 -1.67657 0.335396 -0.287489 -0.0506672
108 1 1.57994 -1.20012 -0.491451 0.559273 0.100666 -0.536332
107 1 1.60269 -2.93103 -3.28508 0.471707 -0.21393 -0.381497
367 2 0.495101 -1.80992 -1.47763 -0.66021 0.744796 -1.5009
128 1 1.28082 -2.18006 -0.691752 0.492954 -0.204312 -0.104314
416 2 2.13029 -1.70157 -1.74473 0.0928103 0.072467 -1.52084
114 1 1.07944 -1.22615 -2.68289 0.113451 0.060398 -0.098603
96 1 2.34782 -1.23734 -2.02881 -0.609717 -0.216081 0.173562
168 2 0.751104 -2.36192 -0.783934 1.49863 0.944106 -0.578503
365 2 2.3731 -1.82108 -3.03655 -0.195853 -0.883328 -0.0350918
11 1 0.229311 -2.52809 -0.630942 -0.504301 -0.899524 0.890553
373 2 2.66688 -0.335429 -1.05631 -0.448943 0.241664 0.478179
457 2 0.166097 -1.01337 -1.81614 0.0375732 0.232225 0.723256
243 2 2.96091 -2.5343 -2.89477 1.40889 1.2191 0.051561
377 2 1.65317 -2.39034 -1.13634 -0.596209 0.267227 1.39243
180 2 0.437842 -0.0446007 -2.00524 -0.0274355 -0.35461 0.273305
10 1 0.0591867 -2.5236 -2.57881 -0.436173 0.184523 -0.770534
253 2 0.191036 -2.56285 -0.0775373 0.117435 -1.10217 -0.698453
354 2 2.2269 -2.59684 -1.87382 -0.0175772 -1.11961 0.287115
212 2 3.18335 -2.54862 -0.931534 -0.282201 -1.10767 -0.37397
378 2 2.22034 -0.788329 -1.72035 0.30104 -0.357791 0.608059
170 2 2.28443 -1.04888 -2.55895 1.07395 -1.1466 0.0473164
217 2 2.00275 -2.6124 -3.04141 0.574827 1.2078 -0.130518
101 1 1.90175 -2.86786 -0.054283 0.0937009 -0.331599 -0.979075
398 2 1.09967 -1.02942 -0.245729 0.0182099 1.08377 0.391679
30 1 0.183071 -1.35896 -1.381 -0.166637 0.858806 0.138306
371 2 1.44645 -1.66024 -0.763654 -0.0426695 0.39276 -0.0421991
206 2 1.64875 -3.23875 -0.45394 0.755168 -0.156978 -0.35214
379 2 1.5759 -1.43152 -2.86012 1.72709 1.00687 -0.1735
35 1 2.15954 -0.548158 -1.20915 0.0732661 -0.757376 0.0535476
497 2 1.91293 -0.326584 -2.97657 0.285295 0.890465 0.436188
472 2 1.03956 -1.1091 -2.11488 -1.09772 -0.147777 -1.49981
353 2 0.576452 -0.314145 -0.377708 -0.567169 0.532026 0.515851
38 1 2.82188 -2.88165 -0.596581 -0.191245 -1.18412 -0.394729
349 2 1.89627 -0.854831 -0.802212 -0.277327 0.054712 0.71066
111 1 0.781205 -2.17607 -1.77729 0.362299 1.40363 -0.59312
396 2 1.54897 -2.37409 -0.151848 -0.453362 0.22826 0.529104
181 2 0.47749 -1.09032 -0.973591 0.20747 -1.22567 -0.483661
256 2 2.91727 -1.34078 -2.04105 -0.565753 0.417643 0.616671
406 2 1.31192 -2.11733 -1.86534 0.324337 -0.498733 -0.208545
402 2 0.26551 -2.58484 -3.12874 0.0624875 -0.346975 0.268213
110 1 0.592443 -0.861705 -0.460231 -0.377202 1.09869 0.353295
358 2 0.676355 -2.68677 -1.57553 -1.30937 -1.13669 0.271661
16 1 2.11157 -1.33549 -3.02603 -0.0818046 -0.318805 -0.0887196
197 2 3.11698 -2.93017 -0.139055 -0.664137 0.524658 1.0305
27 1 0.0504835 -0.468201 -1.98261 -0.0105013 0.336936 0.272827
189 2 3.07379 -0.394375 -2.00664 0.123112 0.124103 0.0180612
241 2 0.716599 -1.09559 -3.0639 -0.887024 -1.09691 0.424497
211 2 1.24744 -3.24723 -2.9817 -0.694471 0.939966 0.371829
124 1 3.20879 -0.565437 -0.95457 -0.41166 -0.873338 0.345131
359 2 1.94775 -1.34674 -0.0667805 1.11483 -0.217609 0.21596
355 2 1.85508 -0.0635949 -1.28634 -0.984438 -0.112863 -0.0997445
368 2 2.69715 -3.34791 -0.894781 0.0911222 -0.816159 0.557569
205 2 0.198529 -1.10307 -0.0979863 -1.14104 0.682627 -0.453125
456 2 1.15099 -3.24879 -2.07822 0.853856 0.477569 0.291878
21 1 0.783227 -3.26166 -1.58935 -0.36873 -0.552698 0.338889
405 2 0.960379 -0.656467 2.82769 1.09003 -1.23868 -0.243914
248 2 0.527038 -0.633905 1.4919 0.50565 -0.295025 -0.946239
486 2 1.09915 -0.0527813 1.02212 -0.157806 0.447427 -0.182558
421 2 1.83655 -1.79869 2.68535 -1.40608 -0.117101 -0.208571
420 2 0.513699 -2.73704 2.69078 -1.73179 1.30905 1.55791
496 2 2.57634 -0.276953 1.3148 0.498977 0.137123 0.209263
119 1 1.93798 -2.64709 1.59143 -0.0542607 -0.668004 0.173175
498 2 2.93394 -0.502089 0.41564 -1.55921 0.36253 0.923601
223 2 3.25722 -2.30702 2.3041 1.43678 0.529823 0.40752
117 1 0.565635 -0.927144 3.14575 -0.112708 0.0601949 0.284894
116 1 1.34974 -0.453728 2.51431 -0.482449 -0.398594 -0.000116122
369 2 1.70727 -0.177865 2.85737 -0.514938 -0.336569 0.67765
104 1 2.49587 -0.360741 0.751949 0.583458 -0.554086 0.138745
57 1 0.0426301 -2.68251 3.06458 0.0766642 0.537065 -0.0602436
32 1 2.99221 -2.69152 2.66402 -0.982344 -0.170685 -0.583764
487 2 0.458878 -1.18167 0.781769 -0.0482377 -0.439516 -1.06122
157 1 0.552505 -3.01718 2.20243 0.176375 0.353756 0.00726486
48 1 2.65211 -2.0269 0.974236 0.42262 0.642449 -0.300553
357 2 2.24722 -3.08639 1.56638 0.475372 -0.0842243 0.549142
389 2 1.06637 -3.33145 2.22379 -1.05946 1.02276 0.0866009
121 1 2.01385 -1.25558 2.60067 0.711334 -0.576938 0.274703
393 2 2.52812 -1.17329 2.43802 -0.304642 0.68048 0.321099
31 1 3.31853 -2.54462 0.256512 0.157398 0.483332 -0.0101262
409 2 1.0486 -1.97607 2.28275 0.0825627 0.0738439 -0.0889449
417 2 2.57585 -2.51318 3.03022 -0.299026 0.239527 1.39788
423 2 2.00311 -3.07164 0.43316 -0.460531 0.488066 0.570685
47 1 2.04814 -0.445906 3.21597 0.366022 -0.498641 -0.045313
433 2 1.97163 -3.31481 3.16975 -0.402092 0.0786974 0.634526
9 1 1.98714 -1.25784 0.485591 -0.405363 -0.674797 0.158989
257 2 1.42138 -1.33502 0.658759 -0.511286 -0.225834 0.117078
58 1 2.9777 -0.278937 1.69213 0.198223 -0.663876 0.346513
218 2 0.869119 -1.77624 1.35156 -0.864256 -0.702462 0.585136
309 2 3.00222 -1.87101 1.36065 -0.602037 -0.584842 0.611015
391 2 2.60024 -0.324031 3.15484 -0.627885 0.467664 -0.129426
295 2 3.04155 -0.449801 2.25277 -0.455309 -0.286067 -0.483473
372 2 1.46475 -2.70071 1.28823 0.847545 -0.574254 0.00718155
463 2 1.23714 -0.951341 1.35824 0.325339 -0.535396 -0.0549008
490 2 1.35896 -2.56618 3.03266 -1.0495 0.316268 -0.78223
411 2 2.17828 -0.816708 0.720631 0.522665 0.519012 -0.599149
188 2 3.31758 -1.35658 2.1063 1.47968 0.0694504 0.570212
467 2 0.671166 -2.66142 1.77441 -0.268155 -0.347791 0.790784
219 2 2.23203 -2.20721 1.31531 -0.0943859 0.566741 1.28366
386 2 2.88155 -2.43059 0.660225 0.206326 0.293669 0.536436
195 2 2.35034 -1.68789 0.631629 1.0257 -0.764769 0.0160482
484 2 1.69913 -2.52114 2.12028 -0.712776 0.749147 -0.321574
65 1 1.03699 -0.440769 1.49194 0.0947029 0.856127 0.123172
148 1 1.50698 -2.2406 2.56058 -0.348034 0.234333 -0.703426
88 1 3.07518 -0.991036 2.43461 0.093074 0.386657 1.00795
263 2 0.674357 -2.67595 0.771664 0.429382 0.0930457 -0.0568538
481 2 0.195331 -1.3091 2.84502 0.194042 0.293253 -0.699324
54 1 0.668726 -2.01493 1.8452 -0.48317 0.64337 -0.773815
95 1 0.989988 -1.37055 0.99692 -1.26874 -0.31217 -0.362352
50 1 0.908452 -2.8039 1.28039 0.595262 0.441594 -0.298085
407 2 1.63347 -0.950471 2.34025 -0.082303 -0.786041 -0.596804
444 2 2.7071 -3.06162 2.31411 -1.01473 0.324182 0.402593
479 2 1.26983 -0.264516 1.96683 -0.276718 -0.867283 -0.145453
118 1 0.0515195 -1.04262 0.42041 -0.816082 -0.00456351 1.27716
260 2 0.113445 -2.01309 1.82592 0.593911 0.796541 0.139001
374 2 1.99282 -1.00971 3.21467 -0.509472 -1.13677 -0.990889
33 1 0.213877 -2.78971 0.459362 0.380558 -0.0778017 0.695617
51 1 3.33719 -1.87819 1.849 -0.583731 -0.748451 0.3357
79 1 0.00894796 -0.454236 1.65068 0.299205 0.416009 -0.451072
239 2 0.168281 -3.34987 0.437638 0.731746 -0.20486 -0.611297
418 2 0.147008 -0.530911 3.27289 0.134741 -0.220584 -1.5437
171 2 3.35667 -2.02267 0.00461318 -0.196073 0.825842 -0.94216
414 2 1.14492 1.70078 -1.64221 1.29603 0.366803 -0.462865
347 2 2.36641 1.60923 -0.196426 0.37972 1.88299 -0.978249
7 1 2.0472 1.30677 -1.3536 -0.139827 -0.131611 -0.58679
113 1 1.929 0.138636 -2.59953 -0.419232 -0.00484533 0.645188
434 2 0.8079 1.71417 -2.74506 -0.0337987 -0.241483 -0.107656
41 1 1.49423 0.363901 -1.19126 -0.173829 0.832839 0.203677
166 2 0.67313 0.772517 -2.37392 0.033718 -0.650032 -0.502206
190 2 2.01864 1.40322 -1.93472 -1.05927 -0.182224 -1.15317
133 1 0.994276 3.20582 -2.55899 -0.186379 -0.734605 0.605467
193 2 0.788832 1.69787 -0.67414 0.483608 1.25866 -0.668516
285 2 3.09655 2.96061 -2.46235 -0.292534 0.109658 0.293286
485 2 2.47938 3.04249 -1.82015 0.548073 -0.321174 -1.54705
440 2 1.95781 1.79259 -1.07102 0.441665 -0.538216 0.180398
29 1 3.32913 2.33259 -0.999436 0.487215 1.16956 -0.010613
130 1 1.44346 2.9877 -0.825886 0.0835576 0.183961 -0.919704
449 2 2.47433 1.49001 -2.71049 0.906039 -1.12526 -0.697965
159 1 2.16643 1.79756 -2.325 -0.956703 0.0131032 0.55538
90 1 3.07159 0.835377 -1.32749 -0.539714 -0.256643 0.244474
394 2 1.39908 0.206546 -2.42184 -0.34389 -1.52112 -0.344343
201 2 2.77115 2.49836 -1.14222 0.393734 -0.154527 -0.57148
249 2 1.68257 0.906282 -1.19037 0.281659 0.392039 0.0514946
301 2 0.494083 0.706636 -0.408998 -0.302437 0.314391 -0.534505
287 2 2.58851 1.06479 -1.23541 -0.86343 0.720964 1.05811
495 2 2.16014 0.629585 -2.81145 -0.712795 -0.572291 0.130419
135 1 2.88527 0.0991055 -2.19188 0.69247 -0.0489303 -0.147286
458 2 2.4474 2.28636 -2.23453 -0.686779 -0.267548 0.997695
231 2 0.52224 2.95062 -1.65825 -0.356846 0.415353 -0.505892
227 2 2.24656 3.13191 -2.75652 0.407031 -0.474447 0.504099
352 2 1.09339 0.365241 -1.59611 -0.256724 0.879633 -0.398179
435 2 0.335413 2.11845 -1.50132 0.342458 0.614685 0.0829893
98 1 0.549977 1.15881 -2.76025 0.526679 0.209553 0.35231
410 2 0.411746 1.20065 -1.2242 1.17314 0.2536 -0.636311
61 1 2.3799 1.09458 -3.06361 -0.139541 0.41865 -0.0643437
425 2 2.32347 0.0178743 -2.22936 -0.236542 -0.666714 -0.124338
139 1 2.44981 2.95884 -1.26822 -0.580664 -0.506686 0.158174
147 1 0.684705 1.70862 -1.27245 -0.738077 -1.16139 0.0654968
141 1 0.058859 2.57733 -1.62931 1.23644 -0.219825 -0.549316
106 1 0.887115 0.271086 -2.13646 0.563274 0.126549 0.418229
73 1 0.131963 0.949025 -0.778656 -0.0286222 -0.734451 -0.299487
140 1 1.16379 2.1685 -2.68737 -0.256238 -0.0734988 0.0191598
132 1 2.54333 2.80453 -2.36081 -0.159544 0.226205 0.562931
144 1 0.84942 0.174744 -0.337516 0.625192 -0.182585 0.254564
432 2 1.22065 2.53492 -0.586382 0.622416 -1.18384 0.391305
415 2 1.24738 0.307063 -0.685495 0.0919137 -0.774325 0.0764022
413 2 3.26068 0.523423 -0.879091 0.652577 1.2546 -0.542022
492 2 3.00657 0.139371 -2.75847 0.744301 -1.11062 -1.39047
397 2 1.68508 1.99069 -2.49726 0.911473 -1.15951 -0.0629779
380 2 1.92567 2.86846 -1.0856 0.369253 -0.0428009 0.713452
318 2 0.415823 3.17376 -2.69214 -0.511071 0.332631 -0.288245
334 2 2.15678 0.297844 -0.467981 -0.620397 -0.00344118 0.420229
429 2 1.0456 2.65467 -2.37377 -1.07264 0.0836943 0.813007
175 2 3.01258 0.4941 -1.80002 -0.464564 0.319486 -0.910965
214 2 0.143322 2.33939 -3.05437 -0.83013 0.930701 0.403337
67 1 1.04537 2.01598 -0.271471 0.134443 0.0974241 -0.0536559
366 2 1.49744 1.775 -0.0522222 0.551734 0.14514 -0.76673
474 2 3.28047 2.02871 -0.526657 -0.00819377 -0.21519 -0.779777
438 2 0.80478 0.991814 -3.2433 0.256074 -0.597638 -0.351278
441 2 2.88994 0.976181 -3.30562 0.0891438 0.540628 -0.784492
361 2 1.14841 3.32275 -1.16274 -0.855683 0.271205 0.212107
455 2 1.30223 2.31443 -3.22224 0.422132 -0.582032 -0.215999
452 2 0.00466338 1.14506 -2.73068 0.820786 0.109784 0.615061
154 1 2.25302 2.97875 -3.34862 -0.646579 -0.595669 0.715533
143 1 2.85229 2.28913 1.78983 -0.256933 -1.09081 -0.360407
165 1 1.21319 2.82301 1.23654 0.181721 -0.387281 -0.322463
2 1 1.97789 1.52034 0.200549 0.100424 -0.0379833 0.967599
151 1 1.26082 1.22826 1.34272 0.887964 -0.329012 -0.11615
312 2 2.57216 2.97892 0.761369 0.142836 0.949339 0.264297
149 1 1.46091 2.96642 2.24302 0.950476 -0.695989 -0.339326
55 1 3.14176 0.850355 0.370201 -1.77082 -0.842598 -0.55644
370 2 1.43871 2.63293 1.77498 0.419323 0.0240776 -0.918589
134 1 1.76912 1.14626 2.77775 0.361583 -0.0718658 -0.476525
344 2 0.428546 0.580059 0.967664 -1.15319 -1.16182 -0.0639383
270 2 0.715001 2.00772 0.223612 1.13797 0.296996 0.344883
288 2 3.2964 1.26047 2.66894 -0.897175 -1.09986 0.0300598
500 2 0.620491 0.198482 3.20113 0.511688 0.249706 1.81473
385 2 3.04526 2.23941 0.347523 -0.0292283 -0.833937 0.125332
475 2 2.7599 2.85943 1.81873 -0.747502 0.253198 -0.326701
320 2 0.7506 2.46484 1.09202 -0.634922 0.10001 0.79459
172 2 0.0992281 3.35043 2.28464 -0.524273 0.569293 -0.586779
129 1 2.17416 0.40605 0.0623822 -0.0497457 -0.0871983 0.217469
161 1 0.729027 1.97709 0.796336 0.709073 -0.371231 0.139551
473 2 1.58807 1.70365 2.67855 0.828571 0.598313 -0.745814
348 2 1.63722 2.87326 0.843768 0.959188 -0.625338 -0.483529
477 2 0.628369 1.81105 2.04963 -1.54405 -0.0485066 -0.485778
448 2 1.01984 0.915912 1.77025 0.0420487 -0.0418021 -0.00940882
69 1 2.06504 3.0217 0.539162 -0.721759 1.35988 -0.0462967
360 2 2.80006 2.93838 3.23991 -0.954945 0.0635834 -0.375644
179 2 2.01932 2.51504 3.12404 0.719447 0.156141 -0.527603
321 2 2.39546 1.94439 1.82685 0.630416 0.0227222 0.256727
329 2 1.33407 2.61681 2.65704 -0.84926 -0.732134 0.443139
204 2 0.913315 0.258761 0.238705 0.175714 0.507763 -0.921412
162 1 2.25047 1.36393 1.88927 -0.440289 0.379122 -0.0439698
403 2 2.70322 0.581403 0.12808 -0.033707 -0.894955 0.901234
292 2 2.11646 1.66382 0.712084 -0.183268 0.390468 -0.371036
105 1 0.795197 0.744648 2.95459 -0.0465147 0.00280336 0.0564615
82 1 1.51218 2.18322 2.97655 0.19239 0.628109 -0.245435
338 2 2.66425 1.09148 1.58804 -0.417946 -0.37594 0.765811
470 2 1.32002 0.812051 2.7701 0.193714 1.80202 0.483737
381 2 2.20513 1.15409 2.40843 0.574311 -0.856369 -0.983688
89 1 3.12481 0.820377 1.47281 -0.386527 0.416253 -0.22324
163 1 0.966463 0.431197 0.791699 -0.402761 -0.80321 0.453822
207 2 1.08871 1.70279 1.13443 -0.041505 -0.031482 -0.845638
491 2 0.40737 0.758015 2.52575 -0.271812 -0.455484 -0.135478
476 2 2.00099 3.11623 2.21211 0.110579 -0.357601 -1.04085
363 2 1.31858 0.819259 0.954809 -0.155405 0.999593 -0.327056
87 1 3.04166 2.61917 0.781135 -0.208559 -0.147434 0.403166
299 2 1.72323 1.35053 1.6643 0.466375 1.06424 -0.514714
392 2 0.955677 3.32252 1.29576 0.0966567 -1.09767 0.594396
290 2 0.18181 1.8825 0.93057 0.0760744 0.785109 0.834504
311 2 2.96059 2.30713 1.2214 0.132719 1.77859 -1.16643
471 2 1.92535 1.21877 3.30729 0.315932 1.3152 0.811486
388 2 2.2029 0.0187412 0.474501 -0.565552 -0.982152 0.48661
323 2 3.15607 1.96693 2.14392 0.623721 0.797105 -0.0466474
160 1 2.46204 3.29169 1.95685 -0.91743 0.15798 0.659521
278 2 3.02932 0.302151 1.68146 -0.750148 -1.24409 -0.196237
400 2 2.04897 2.76989 0.00768307 0.915202 -1.83503 -0.731228