ITEM: TIMESTEP
0
ITEM: NUMBER OF ATOMS
1200
ITEM: BOX BOUNDS pp pp pp
-4.4919104223854296e+00 4.4919104223854296e+00
-4.4919104223854296e+00 4.4919104223854296e+00
-4.4919104223854296e+00 4.4919104223854296e+00
ITEM: ATOMS id type x y z vx vy vz
524 2 -0.907848 -3.14156 -1.69793 -0.145826 -0.00495984 0.545554
661 2 -0.17723 -4.1822 -2.69116 -0.0076954 0.377604 0.841686
1003 2 -0.90249 -0.984034 -1.70288 0.695749 -0.397392 -1.19172
1031 2 -2.80623 -3.58938 -1.80499 0.602861 -0.873741 -0.433604
378 1 -1.33933 -3.39003 -4.11803 0.447615 0.1615 -0.193225
901 2 -1.44827 -1.58263 -4.26211 0.0345832 -0.298513 -0.187644
71 1 -1.70038 -2.38751 -0.224351 0.135205 -0.665382 -0.01891
104 1 -2.15729 -2.83268 -3.76824 0.27029 -0.0740447 0.409932
360 1 -3.83533 -4.44498 -1.59628 -0.0986553 -0.738637 0.0997006
480 2 -2.46914 -1.04982 -4.38332 -0.105064 -0.227239 -0.679185
42 1 -1.10439 -1.51928 -3.20004 -0.0309009 0.440187 -0.466026
474 2 -3.2986 -0.493515 -1.90567 0.0332793 0.00815227 -0.586693
1037 2 -0.879431 -1.30734 -0.375843 1.8805 -0.78804 0.686007
316 1 -0.568615 -0.553022 -1.78418 -0.154859 -0.281477 -0.118656
116 1 -0.852734 -2.38833 -2.62088 -0.707138 -0.382146 -1.15714
984 2 -3.92667 -2.57227 -2.19188 0.589226 0.293636 -0.373057
453 2 -3.59471 -3.37501 -0.371092 -0.626077 -1.02007 1.56205
582 2 -0.112061 -0.83129 -2.04968 -0.614222 -1.30418 -0.8521
920 2 -2.66574 -1.1219 -2.6428 -0.0473791 -0.711994 0.600371
577 2 -2.86227 -1.86838 -2.07919 1.17108 -0.156667 0.361385
48 1 -4.4181 -1.86039 -4.31014 -0.136479 0.318327 0.409527
39 1 -0.0988542 -2.31552 -1.93392 0.215044 0.479118 0.457222
865 2 -2.41463 -2.89128 -3.2569 0.00897216 -0.408137 0.590709
272 1 -4.08449 -2.23713 -1.76867 0.399167 -0.968286 0.411174
9 1 -4.04111 -3.90638 -2.41491 0.038316 0.213105 0.00070293
518 2 -1.52917 -1.5247 -2.08456 -0.00182239 -1.43616 0.0587231
1042 2 -4.3408 -1.48413 -2.85949 0.335349 0.196485 -0.349359
576 2 -0.540616 -0.179929 -3.54336 0.973186 -0.127855 -0.405298
1190 2 -1.15681 -3.7615 -2.38542 -0.0744353 0.827348 -1.37771
382 1 -2.87125 -1.8089 -0.444236 0.0881838 0.397013 1.63001
260 1 -3.71552 -1.20648 -0.705861 0.238569 0.261074 0.185261
503 2 -1.13895 -4.1777 -3.11083 -0.264923 -0.222271 -0.58278
125 1 -3.90883 -0.440697 -3.26075 0.115228 0.522047 0.278373
169 1 -1.01644 -3.66502 -1.85132 0.725191 0.371514 0.545029
194 1 -2.73901 -4.15227 -1.77726 -0.176825 -0.258075 0.510939
613 2 -3.44855 -3.07691 -4.24283 0.463051 0.262672 0.0561889
931 2 -1.78205 -2.426 -3.94905 0.849544 -1.25062 -0.61103
1177 2 -3.84532 -1.78446 -3.5303 -0.274854 -0.0698829 0.138494
781 2 -0.741632 -3.01349 -0.777193 -0.597226 0.937679 0.798648
403 2 -4.17028 -4.12633 -1.89578 -0.414255 -0.0883922 0.381632
521 2 -0.78312 -1.60529 -3.68521 0.197731 0.0629287 -0.00625201
128 1 -3.0373 -4.20877 -2.75744 -1.50446 -1.22375 0.902958
1143 2 -4.17816 -2.37786 -4.31348 -0.20769 1.82373 0.203253
283 1 -0.578662 -3.03228 -3.45299 -0.149935 -0.723282 0.467708
630 2 -2.91304 -0.0639592 -0.139319 -0.24762 -0.373337 -0.099348
1145 2 -1.89613 -3.59743 -2.85049 1.43645 0.752983 -0.798449
217 1 -1.81292 -4.026 -1.19231 0.104426 -0.324613 0.257695
896 2 -0.353212 -2.14315 -0.204304 0.77775 0.907577 -1.33554
293 1 -1.38333 -1.2316 -1.62611 -0.820337 -0.751924 -0.0705037
102 1 -4.37263 -1.36817 -2.31152 0.156041 -0.349201 -0.51818
1132 2 -3.64222 -1.22196 -1.28778 -0.00511271 -0.225689 0.119618
1044 2 -1.50433 -1.63677 -1.23322 0.367689 0.439284 0.106202
1090 2 -2.47717 -0.247489 -3.06599 0.186819 -0.706926 0.58555
1097 2 -2.89354 -1.06153 -3.47672 0.742243 -0.0289734 0.823196
726 2 -2.83095 -2.6396 -1.68054 0.556759 -0.997573 -0.194939
1004 2 -3.56801 -4.09658 -2.63947 -0.201369 0.0625184 -0.543461
809 2 -4.1157 -0.519964 -1.5611 -0.41623 0.281525 -1.21406
615 2 -0.895224 -1.81989 -2.80033 -1.52103 -0.788559 -0.91246
692 2 -0.14749 -2.74118 -3.60951 -0.411856 -0.676005 -0.441169
50 1 -0.0393535 -3.80968 -3.11285 -0.838765 -0.248682 -0.125282
275 1 -3.06312 -2.6603 -4.17531 0.101283 -0.286152 1.35688
671 2 -3.27502 -4.26424 -1.57298 -0.835665 0.526262 0.435403
77 1 -2.73565 -1.3522 -3.94478 0.117899 -0.150336 -0.178962
193 1 -1.09097 -0.756833 -0.219124 -0.513773 -0.361903 0.775584
1148 2 -3.37965 -1.58894 -0.468065 0.352137 0.650441 0.64444
280 1 -2.82939 -3.07853 -2.06085 0.215 -0.592021 -0.0946584
112 1 -4.05795 -2.89806 -4.3511 -0.544681 0.187195 0.15938
558 2 -1.75087 -3.30379 -3.72527 0.359726 -0.605034 0.0386653
1160 2 -2.56308 -2.94277 -4.12281 -0.756638 0.0466958 1.13412
638 2 -3.09348 -1.88006 -2.9131 -0.42777 -0.156354 0.271266
405 2 -2.79985 -3.7237 -2.91523 1.39629 0.622072 0.666574
765 2 -1.95359 -2.20174 -1.66345 -0.549028 -0.645129 0.570741
767 2 -4.06292 -3.35851 -2.49358 0.993547 0.177136 0.332547
166 1 -2.66157 -1.69484 -2.5684 0.152751 -0.539388 0.57044
229 1 -3.67876 -0.867382 -1.75834 0.482761 0.150301 -0.354247
311 1 -2.97751 -2.09913 -1.57746 -0.664825 -0.400782 0.321255
570 2 -0.367478 -2.44056 -1.43873 0.74052 -0.635751 0.335039
816 2 -1.44615 -0.398153 -3.70582 1.07308 0.0994777 -0.238083
135 1 -2.81218 -0.698871 -3.00531 0.205611 0.308008 -0.1817
1000 2 -2.79272 -1.9833 -1.03389 -0.116861 -0.731833 -0.995471
891 2 -0.221514 -0.431943 -1.36618 -0.298764 0.0913619 -0.835092
653 2 -0.181008 -0.145114 -0.323945 0.0345688 -0.749157 0.717127
804 2 -1.1488 -3.87877 -3.95094 -0.294918 -0.265379 -0.279116
546 2 -0.446307 -3.37587 -3.02924 -0.176542 -0.246329 -0.291721
345 1 -0.797796 -2.77951 -1.2618 0.724836 0.112943 -0.453172
105 1 -1.74876 -4.38357 -0.20466 -0.213954 0.554126 -0.0293162
916 2 -1.30774 -3.88949 -1.46259 -0.0303102 -1.51507 -0.363882
388 1 -1.75883 -1.88053 -3.87991 0.0812807 0.446106 -0.164058
1199 2 -1.01806 -0.137344 -2.80727 0.341987 0.301358 -0.714304
1062 2 -2.35597 -3.01088 -2.41463 0.679992 0.103171 0.6083
1197 2 -1.58133 -1.70943 -3.37693 -0.664008 0.412093 -0.116522
95 1 -2.08524 -0.45436 -1.21403 0.519665 0.423821 -0.511412
609 2 -1.91571 -2.23148 -0.699246 -0.346261 0.36315 0.196454
1187 2 -3.23725 -2.98316 -2.44307 -0.068276 -0.162299 -0.961595
491 2 -1.74252 -2.93166 -0.309929 -0.509026 -1.5309 -0.729737
641 2 -1.87626 -0.337046 -4.4818 -0.230627 -0.435879 0.59165
92 1 -3.11495 -3.64875 -0.188703 0.275733 -0.402257 0.0138502
959 2 -3.36716 -0.487809 -3.1163 0.0464571 0.209226 -0.0629868
949 2 -0.966024 -0.94057 -3.18257 -1.57388 -0.227079 0.731336
885 2 -3.46458 -0.711184 -0.437011 0.620612 1.10346 -0.567584
334 1 -0.186095 -4.26996 -2.12842 -0.645995 0.268181 -0.626966
810 2 -3.72709 -2.58947 -3.03436 0.735708 0.446903 0.415192
292 1 -1.70808 -2.13615 -1.19343 -0.114184 -0.0206955 -0.0381152
12 1 -2.0382 -3.42025 -0.439507 0.0212835 1.08604 -0.659317
1078 2 -3.23759 -2.32204 -3.7263 0.409921 -0.786483 -0.409586
60 1 -0.409171 -0.205357 -0.805274 -0.348018 0.941605 -0.819807
736 2 -0.906873 -0.45898 -0.663559 0.00141825 0.339763 0.501242
1029 2 -0.851559 -3.07613 -3.95415 0.592497 0.602661 0.182757
824 2 -0.909439 -2.64468 -3.15244 1.07672 -0.487537 0.0380072
385 1 -0.580752 -3.42336 -0.459947 -0.245 0.387091 -0.195403
160 1 -3.48565 -2.13903 -3.25125 0.107952 0.934643 0.168317
633 2 -1.80673 -4.47003 -2.50281 -0.142972 0.856752 -0.547985
925 2 -0.464617 -3.88178 -1.90213 -0.303909 -0.0546388 -0.362248
1057 2 -0.28182 -4.00245 -3.58655 0.493458 -1.04383 0.547137
99 1 -3.41171 -3.65622 -4.30393 0.43634 -0.368461 -0.557597
1073 2 -2.94701 -2.19675 -0.0214894 -2.01976 -0.676278 0.880231
553 2 -1.96247 -3.51584 -0.988185 0.197569 0.926143 -0.241324
138 1 -0.846446 -4.22564 -3.61665 0.267803 -0.334571 0.372261
1026 2 -0.921121 -0.139227 -1.84615 1.06651 -0.349719 0.423103
636 2 -2.2497 -1.66467 -3.81699 -0.123421 -0.516653 0.128412
393 1 -2.38603 -3.31672 -2.91937 -0.144864 0.246857 -0.194358
1179 2 -1.19999 -2.10891 -0.308915 0.55502 -0.930374 0.0059673
509 2 -0.396433 -2.53719 -2.35704 -0.00898265 -0.499217 1.1953
657 2 -1.34355 -2.40612 -2.35613 0.800538 0.000261097 -0.432468
6 1 -1.76759 -2.04892 -2.17825 -0.590556 0.307674 -0.0701416
129 1 -1.02604 -0.396461 -3.34282 0.512402 -0.204655 -0.913641
794 2 -2.15364 -1.9095 -2.61194 1.30158 0.736856 0.509926
429 2 -3.55774 -2.09309 -1.54411 0.394621 -0.246152 0.0183024
1063 2 -2.55532 -0.49785 -1.53113 0.495454 -0.0437479 -1.2292
161 1 -3.73189 -2.91586 -2.60262 -0.395387 0.238455 -0.333487
329 1 -4.28999 -1.45237 -3.40282 -0.229415 0.147143 -0.222514
821 2 -1.24506 -2.43189 -1.25729 -0.408843 0.18133 0.482128
504 2 -0.766705 -3.93572 -0.747734 0.895994 0.129384 -0.612789
918 2 -1.76995 -0.875525 -1.39155 0.0689064 1.12037 -1.19376
828 2 -2.22415 -0.601485 -0.693314 0.0320408 0.101984 -0.931235
784 2 -3.15831 -4.00049 -3.86358 -0.20476 -0.0564253 0.486973
711 2 -2.23876 -4.25586 -1.51643 -1.02648 0.697779 -0.521971
850 2 -4.32037 -2.56574 -1.37326 -0.40949 1.52498 -0.121489
76 1 -1.53212 -4.01811 -2.73729 -0.246619 -0.581717 0.476443
858 2 -2.61661 -3.50377 -0.407177 0.340436 1.00119 -0.702946
497 2 -4.26012 -0.286019 -2.84608 1.31224 -0.174096 1.39452
723 2 -4.0716 -4.40339 -1.08419 -0.255818 -0.657871 -0.415723
651 2 -3.91333 -1.07777 -2.2192 0.463913 0.63046 -0.593628
740 2 -2.78466 -4.40509 -2.3096 -0.0689281 0.954224 -0.391293
934 2 -4.13014 -0.908858 -3.52097 0.149559 -0.570733 -0.184843
795 2 -4.24949 -1.23874 -0.558241 -0.285914 -1.00782 1.36567
843 2 -2.4543 -1.49569 -0.301092 0.539893 -0.0406738 0.398207
137 1 -3.34186 -0.152002 -0.470649 -0.243718 0.818985 0.584673
436 2 -3.19749 -4.20016 -0.251156 0.941811 0.84546 -0.11516
622 2 -3.18824 -1.53129 -4.24569 -0.853512 0.69796 0.379998
11 1 -2.13798 -0.986368 -0.289005 0.256572 -0.129459 -0.0334023
572 2 -4.40196 -4.16698 -2.77686 -1.15157 -0.12538 0.0215785
1170 2 -4.44449 -3.12297 -3.97461 -0.225163 -0.790333 0.4803
1139 2 -1.61311 -0.978305 -0.193663 -0.876155 -1.05383 0.0196497
958 2 -1.82135 -4.35291 -0.775409 0.197239 -0.741602 -1.47398
27 1 -0.721046 -1.753 -0.0768482 0.0327658 -0.22409 -0.427154
256 1 -0.889785 -1.61631 -4.25941 -0.623131 -0.0343089 0.785151
528 2 -0.328518 -0.23462 -4.41991 -0.562152 -0.0483056 0.217742
1081 2 -3.22649 -0.0969885 -1.01984 -0.502884 -0.284398 0.105282
126 1 -2.99589 -0.135433 -1.53163 -0.541348 0.123887 -0.233137
886 2 -0.767598 -1.08395 -4.45535 -0.516605 -0.1981 -0.112456
763 2 -0.0150392 -3.57835 -0.466873 1.39231 0.590408 -0.112414
551 2 -3.88791 -3.88075 -4.46022 -0.166199 -1.28827 0.533106
783 2 -4.44981 -1.89435 -2.04971 0.0254557 1.10268 -0.547083
328 1 -1.69926 -0.0272732 -4.04625 -0.00144936 -0.0787549 -0.409968
540 2 -1.20196 -4.46071 -0.183237 0.0402854 0.229979 -0.99062
172 1 -0.836545 -4.47258 -0.614273 -0.431184 -0.487073 -0.054003
672 2 -1.8719 -3.84016 -0.0901189 -0.340294 -0.114644 -0.689161
1043 2 -2.14804 -3.99866 -4.4592 0.765297 0.827219 0.223
863 2 -0.0334005 -1.74668 -2.02495 -1.06557 1.19711 0.0315322
1121 2 -4.46579 -2.79502 -0.431883 0.116752 -0.79002 0.648584
870 2 -2.2475 -3.38516 3.88339 0.498217 -0.369636 0.256953
482 2 -2.19924 -0.757459 3.72106 0.933753 -0.37597 -0.628465
425 2 -3.01673 -0.290091 0.773321 0.562786 -0.47591 0.191354
488 2 -0.396506 -0.884395 3.0055 -0.0874071 1.16781 0.0660496
300 1 -2.23264 -3.73452 1.32362 -1.10583 -0.272389 0.347617
336 1 -2.50694 -3.86913 4.11227 0.359313 -0.304979 0.811673
1144 2 -2.16368 -3.00858 2.50328 0.855018 -0.597803 -0.544007
1019 2 -3.58321 -1.5335 2.91568 -0.607256 -0.196216 0.271264
1039 2 -3.20603 -2.78048 0.771123 -0.448024 0.116166 -0.200328
675 2 -0.101427 -3.33979 0.64365 0.0567938 -0.301655 -1.25324
708 2 -3.03488 -3.79464 4.24202 -0.849832 -0.455975 -1.15964
343 1 -2.43965 -3.46992 2.35418 -0.113838 0.235335 0.505938
1023 2 -3.43819 -1.66135 3.90209 0.179504 -1.39452 -0.0787231
461 2 -0.580726 -4.14425 0.839643 0.418026 0.153424 -0.304507
856 2 -3.0655 -2.4812 1.76418 -0.184448 -0.891873 0.539018
486 2 -3.84282 -0.234884 1.18752 0.0703623 0.704581 -1.54937
88 1 -0.73273 -3.7176 2.10128 0.346929 -0.119697 -0.447832
495 2 -1.9914 -1.15887 2.80788 1.04224 0.655957 -0.266649
628 2 -0.480133 -3.56263 3.48222 0.896101 0.389969 -0.313122
277 1 -2.62892 -0.23101 0.379489 0.116061 0.883432 -0.744786
981 2 -3.3509 -2.40519 3.45234 1.72409 -0.860869 0.390356
515 2 -4.1651 -1.4619 0.516669 0.602151 1.64142 -0.429457
44 1 -2.31902 -0.575397 4.27878 1.1018 0.0476706 -0.516246
240 1 -2.69905 -1.02076 1.79271 -0.352786 -0.284005 -0.309819
296 1 -2.0018 -2.46014 2.52292 -0.169069 0.0212263 -0.190144
427 2 -3.09191 -0.669577 1.58625 0.830734 -0.240227 -0.122406
1038 2 -4.28508 -3.41981 1.34576 1.36552 0.783585 -0.391973
248 1 -4.06881 -1.76561 2.79059 -0.259545 0.305822 -0.233515
342 1 -3.26422 -1.10474 2.7616 0.65776 -0.460968 0.573912
879 2 -4.09336 -3.07459 4.0823 0.429238 -0.440331 -0.0639933
1198 2 -4.01139 -1.55905 1.42674 0.564172 0.223603 0.208808
600 2 -1.441 -3.36106 4.33518 0.344621 1.41634 0.898608
45 1 -0.24978 -2.41732 4.22699 -0.799884 0.228783 0.934521
203 1 -4.13819 -3.56238 1.87491 -0.215297 -0.796507 0.958908
36 1 -3.3585 -0.238825 4.10731 -0.0107915 -0.3281 -0.100989
811 2 -3.29022 -2.7087 2.5376 0.771122 -0.957431 -0.0759116
754 2 -0.925583 -1.12949 1.17254 0.976025 0.167207 -0.887374
25 1 -4.33294 -4.37573 3.53907 -0.146147 -0.260745 0.464506
749 2 -2.4455 -4.17607 3.67607 -0.281023 0.272863 0.237518
242 1 -3.1298 -3.31367 0.906744 0.219601 0.315788 0.0179624
680 2 -0.295528 -2.92311 4.07555 -0.018502 0.175819 0.246526
825 2 -2.22604 -2.18592 2.04512 1.26766 1.12388 -0.355134
644 2 -2.18826 -3.74069 1.91589 0.353715 -0.889024 0.922049
992 2 -3.78824 -2.51099 0.0209278 -0.249257 0.938782 -0.31058
291 1 -1.10569 -0.632 1.21565 0.733205 0.211368 -0.0773081
835 2 -0.0927953 -2.16075 3.74678 1.13552 -0.0785719 0.204824
66 1 -1.54702 -1.36448 3.12096 -0.2111 -0.243276 0.0687229
284 1 -3.39188 -0.558776 1.12277 -0.124007 -0.954302 0.976986
599 2 -2.79381 -0.283563 4.2454 1.96586 -0.622231 -0.130029
530 2 -1.73915 -2.58439 3.80119 0.078334 0.0745252 -0.245022
848 2 -2.91998 -3.30895 2.1046 -0.497623 1.68115 0.336301
955 2 -0.840903 -3.49402 2.63568 -1.495 -0.128643 -0.495705
915 2 -4.42068 -3.20897 0.351759 0.928475 -0.167178 0.591905
302 1 -3.7613 -1.55851 0.917202 -0.2765 -0.345306 -0.194852
394 1 -1.9986 -2.1093 3.58766 0.0135997 0.311465 0.247489
373 1 -2.60247 -2.12603 1.65382 -0.608056 -0.291062 0.723488
704 2 -4.0078 -2.33238 2.82731 2.15978 -0.682295 -0.664144
457 2 -0.703176 -3.60694 0.0453654 -0.599556 0.240772 -0.293224
223 1 -0.0906608 -0.344271 1.18849 -0.408036 -0.166702 0.949403
489 2 -1.44198 -2.56841 2.41472 1.33575 0.0722526 -0.422432
967 2 -3.08312 -2.46883 4.27266 0.186116 0.553018 0.977705
338 1 -2.38202 -0.82899 3.08059 0.204596 -0.229022 -0.68763
567 2 -1.15792 -0.297005 0.134448 -0.488289 0.0226729 -1.06179
832 2 -3.07851 -3.59403 0.373044 0.0984332 0.158844 1.28781
929 2 -0.864352 -0.227058 2.89768 -0.833686 0.037029 0.370108
306 1 -1.02101 -1.67557 0.960257 -1.08612 -0.775973 -0.342471
649 2 -3.87171 -3.04913 1.96041 0.196571 -0.744387 -0.129831
557 2 -1.67097 -1.67417 3.57465 0.630255 0.718921 0.186192
640 2 -2.37012 -0.715828 0.222242 -0.536322 -1.66264 -1.27646
507 2 -1.55676 -0.479442 0.899448 1.41688 1.00389 1.16679
527 2 -1.66749 -0.197545 2.45572 -1.08331 0.807096 -0.434394
188 1 -3.68116 -0.10859 3.04767 -0.20745 0.671941 0.190859
805 2 -1.04011 -3.3842 1.74421 -0.606141 1.19501 -1.2373
1150 2 -0.809464 -2.15189 1.20037 0.603632 -0.551669 0.883556
118 1 -0.39878 -2.21651 1.56822 -0.504804 -0.325143 -0.690997
543 2 -3.50134 -1.96233 0.638133 -0.255113 -0.273393 -0.182998
735 2 -1.61285 -2.69996 1.15761 -0.515358 -2.29904 0.0624924
157 1 -0.946545 -3.66188 3.19476 0.689062 -0.430709 0.455231
215 1 -1.00185 -2.12543 2.50504 0.743689 -0.633643 -0.375638
517 2 -3.58251 -0.622567 2.83842 -0.091749 1.30145 0.764633
970 2 -0.183299 -3.59874 1.95053 -0.194493 0.532872 0.509189
392 1 -0.417636 -0.713189 4.29347 0.859767 -0.126246 -1.31124
627 2 -3.42178 -3.64535 1.21185 -0.605065 0.521269 -0.436031
1033 2 -4.03994 -4.12502 1.97318 -0.741632 -0.861428 1.15718
1112 2 -3.70441 -3.17193 3.16056 0.362749 0.568966 0.148502
550 2 -2.59194 -3.38342 1.03499 -0.577477 -0.942812 0.530704
201 1 -4.31145 -2.68818 0.0999082 0.219276 -0.496217 -0.0847137
327 1 -3.53992 -1.32037 4.31021 0.202142 -0.453883 1.11308
512 2 -1.99077 -2.26732 3.02283 1.68145 0.837929 0.31002
862 2 -0.981266 -3.26252 0.863905 0.0234274 1.03019 0.328721
556 2 -2.61691 -3.76708 2.87376 -0.442961 0.182493 -1.51522
1128 2 -3.45966 -0.804384 4.17142 -0.456826 0.187123 -0.517883
460 2 -1.32012 -0.568965 1.72397 0.169273 -0.210361 -0.0933737
155 1 -1.95313 -2.21779 0.843933 0.169901 0.585834 0.483286
689 2 -1.11909 -4.20068 3.16045 -1.64239 -0.164238 0.292874
899 2 -1.40507 -3.40256 3.39546 0.45614 0.248211 0.653884
10 1 -3.60033 -2.66061 3.02115 0.448286 -0.451874 0.512913
499 2 -2.26745 -0.653638 1.95682 -0.0774771 0.17052 -1.13184
438 2 -0.675238 -0.483356 3.82769 0.153012 -0.486201 0.343094
514 2 -1.21811 -1.62263 2.72686 1.02573 0.42044 -1.26497
750 2 -2.99811 -1.19995 2.24236 0.490616 0.704641 0.461239
307 1 -4.0775 -3.30743 3.58114 -0.895894 -0.176475 1.64088
562 2 -0.591143 -2.2437 2.89822 0.069764 -0.480653 -0.215465
538 2 -1.87793 -2.23561 0.295212 0.353923 -0.80005 -0.44479
246 1 -3.29834 -2.90043 1.99412 0.313448 -0.0768204 -0.0556994
525 2 -2.83137 -1.14314 3.13042 0.455478 -0.750503 -0.233877
232 1 -0.111199 -3.46801 3.90886 0.909822 0.100968 -0.942423
1052 2 -4.12533 -3.86625 3.55099 -0.176702 -0.168787 -0.773522
1075 2 -2.44742 -2.23747 1.10753 1.52016 -0.0292478 0.258566
348 1 -0.784489 -0.595084 3.30901 0.0245288 -0.48548 -0.316853
184 1 -1.33294 -3.15674 1.3336 -0.14105 0.037457 -0.199403
893 2 -4.0716 -1.4607 4.40977 -0.251856 0.755745 0.0371496
100 1 -0.575687 -3.61385 0.581828 0.192343 -0.555613 0.468838
183 1 -1.79544 -0.372436 1.91508 1.00424 0.201666 -0.571078
1159 2 -1.27871 -0.913092 3.28404 0.0828189 -0.729191 -0.136554
833 2 -1.69827 -3.61233 1.23754 0.388055 0.107978 -0.034568
693 2 -1.61583 -1.79277 1.02753 0.391897 -0.233031 -0.454408
612 2 -3.47267 -1.07299 0.894364 0.0968772 0.187385 0.381385
441 2 -2.53272 -0.303314 2.89355 0.374296 0.832597 -0.0314043
531 2 -0.870422 -4.23208 1.9971 0.100202 0.928471 -1.52006
995 2 -0.782745 -1.72966 0.459113 -0.271668 -0.723155 -0.458242
142 1 -1.72737 -3.14118 3.83903 -0.94945 0.200213 -0.378103
366 1 -3.31116 -2.42078 0.340893 -0.820265 -0.510426 -0.478799
1105 2 -2.69113 -1.55436 1.54392 0.0503615 0.142492 -1.00898
57 1 -3.06057 -2.1134 3.85534 -0.635014 -1.1086 0.896907
94 1 -2.57367 -4.25286 3.13589 -0.812526 0.116563 0.93743
756 2 -2.52869 -2.06165 3.7028 0.890716 -0.279637 0.886648
997 2 -0.633417 -2.30671 2.08235 -0.158331 0.000266719 0.435335
290 1 -0.0649064 -2.09387 3.18362 -0.00349061 0.691679 -0.519433
1103 2 -0.646625 -0.30361 1.12406 0.402454 0.492937 -0.525924
493 2 -2.36771 -4.30822 1.14872 0.696367 -0.481355 0.37483
902 2 -0.0633012 -1.78914 1.68487 -0.773899 0.276931 -0.855019
853 2 -0.209047 -3.9239 4.29038 1.11218 -0.225219 -0.426799
1118 2 -4.2352 -0.0216321 2.96967 0.16976 -0.449065 0.0672015
449 2 -0.119979 -2.64363 1.35353 0.248568 -0.52007 0.403441
249 1 -0.100707 -4.44877 4.08574 -0.860757 -0.435011 0.668987
117 1 -1.603 -0.0405118 0.546405 0.201279 -0.257666 0.512257
670 2 -3.48709 -0.00728754 3.57471 -0.243507 0.463063 -1.40783
772 2 -0.629955 -2.05163 4.48544 -0.606404 0.241831 -0.581027
773 2 -2.92307 0.374864 -1.75801 -0.754321 0.410002 -1.79688
1111 2 -0.471566 3.40182 -3.90595 -0.473096 0.324374 -0.00320403
1196 2 -2.36667 3.34646 -0.368546 -0.708299 0.50108 0.156646
1068 2 -0.894094 1.16795 -4.31505 0.154617 -1.34072 0.808431
323 1 -1.80363 2.17092 -0.582644 0.161886 -0.37631 -0.113308
1027 2 -3.2818 1.81382 -0.873303 0.749128 -0.360643 -0.185459
1176 2 -1.19376 2.59532 -1.53071 0.522242 0.992641 -0.915017
428 2 -4.09562 1.29753 -1.0397 -0.216027 0.246301 -0.384567
625 2 -0.422074 1.218 -2.16407 -0.51279 -0.0483298 0.0223856
884 2 -3.96906 2.54046 -2.39215 0.204192 0.170509 -0.542415
192 1 -2.08213 2.41011 -3.33914 1.06517 -0.18439 0.169675
642 2 -4.30276 3.00735 -3.05899 -1.02077 -0.325757 -0.0256793
402 2 -4.03192 3.1631 -1.68484 -0.15351 0.534921 0.245654
52 1 -1.93265 0.54771 -0.951943 0.958621 -0.364796 0.48414
413 2 -1.64917 1.35575 -2.80054 0.369059 1.40403 -0.724076
560 2 -1.90552 1.89598 -3.43109 -0.485903 -0.584593 -0.198249
245 1 -3.3259 1.3376 -4.0143 -0.263075 1.07438 0.953403
398 2 -0.718672 1.04681 -0.377299 1.30596 -0.154814 -0.359339
447 2 -3.83693 0.708156 -2.86695 0.647312 0.716489 0.141513
285 1 -1.29911 3.80294 -1.36921 0.0571701 -0.840446 0.745311
575 2 -4.21241 0.24486 -2.14126 0.262491 -1.02861 0.957315
624 2 -0.427434 4.26815 -0.320593 0.417034 0.175261 -0.453416
1107 2 -2.66446 2.47335 -3.40405 -1.00602 -0.265117 0.542007
912 2 -3.16249 1.20672 -2.73913 -1.4243 0.31757 -0.41283
119 1 -3.63778 3.47724 -1.94728 0.336576 -0.38067 -0.28246
922 2 -0.460075 2.17407 -2.52773 -0.428934 0.214767 -0.198572
286 1 -4.41654 0.846219 -0.836108 -0.635993 0.512021 -0.631653
658 2 -3.66104 1.69408 -2.25882 -0.208068 1.51834 -0.00364128
757 2 -0.388785 0.590035 -3.95035 -0.508759 0.460476 -0.202428
818 2 -3.06389 2.00208 -0.0396666 -0.239998 0.858959 0.661504
271 1 -3.17391 4.21195 -0.414904 -0.0997762 -0.406825 0.598336
873 2 -1.84465 2.71107 -0.76933 -0.87208 -0.526401 0.85194
741 2 -2.4763 2.38578 -4.45747 -0.168618 -0.948069 -0.177031
655 2 -1.51846 4.02931 -1.83755 -1.45094 -0.443125 1.52343
61 1 -0.223729 0.0400784 -3.94931 0.789345 -0.403106 -0.998624
37 1 -0.415401 3.68347 -2.00575 0.533187 -0.423076 0.345941
569 2 -1.05287 3.60117 -3.31537 -1.25254 -0.794997 0.914168
110 1 -1.7537 0.894205 -2.49366 -1.06648 0.654064 -0.334465
629 2 -1.12132 2.83092 -2.7617 -0.264979 -0.737545 -0.2124
1045 2 -1.26648 3.6494 -4.30962 0.766067 0.693972 -0.211534
580 2 -4.28444 0.357732 -1.15156 -1.14931 -0.315704 -0.317847
561 2 -0.460684 4.23363 -1.90188 0.262493 -0.565216 1.59838
1083 2 -0.316785 1.91487 -1.63857 0.62277 1.31465 -0.49907
988 2 -4.3983 0.803901 -0.284692 -0.436973 0.611335 0.668037
35 1 -2.84862 1.74606 -0.478759 0.00312127 0.28259 1.2516
1146 2 -3.61008 2.50674 -3.26451 0.275079 -0.0442696 0.0231932
164 1 -0.750165 2.90841 -1.40078 0.748217 -0.0926655 0.0371126
1084 2 -2.31644 3.75763 -2.09581 -0.167094 -0.531924 0.237564
747 2 -2.4183 3.23607 -1.24773 -0.380813 0.0410991 0.499551
571 2 -2.10264 0.268758 -3.72402 -1.3522 0.889357 0.524094
1189 2 -2.22129 0.476018 -0.458446 0.520892 -0.245367 -1.02892
806 2 -4.45628 2.05165 -2.9999 -1.48852 -0.377088 -0.664005
191 1 -0.904665 0.791263 -3.91477 -0.844387 0.844405 -0.593263
182 1 -2.64828 0.839231 -1.66184 -0.765668 0.866046 0.0097072
673 2 -1.08056 2.02811 -3.17891 0.85972 -0.046232 0.0434856
80 1 -4.22664 3.53536 -2.85875 0.0657722 -0.0531695 -0.235623
1094 2 -0.832933 3.48359 -1.61477 0.479964 1.55012 1.42992
1129 2 -2.8049 0.993771 -4.22661 -0.0668558 0.114954 -1.60777
631 2 -3.2351 2.61062 -4.12383 0.405494 -0.939726 0.331009
467 2 -0.340253 2.63268 -4.29415 -1.35144 1.3871 -0.664614
943 2 -1.43635 0.807427 -0.930787 0.0338325 0.51661 0.057036
660 2 -2.94531 1.27922 -1.80327 0.669275 -0.890092 0.939237
130 1 -4.232 3.96029 -3.87263 0.00101332 0.41775 0.419541
803 2 -4.0569 2.13455 -0.594012 -0.552402 -0.92286 -0.0463162
477 2 -2.02034 0.562013 -2.84148 0.187851 -0.324308 -0.775296
904 2 -1.65082 3.56351 -2.62898 0.0674212 -0.129507 -0.880896
209 1 -2.35933 0.309396 -3.22142 0.663133 -0.694876 0.326775
1182 2 -2.76618 1.97142 -2.35553 1.5328 0.0974328 -1.1099
463 2 -2.04029 2.47896 -2.76236 -0.974646 -0.30854 -0.618564
73 1 -2.05112 3.21338 -0.796244 0.0224652 0.0224679 -0.00582875
1136 2 -3.13298 3.97782 -0.931266 0.356521 -0.49531 0.845413
483 2 -3.92309 0.0852248 -3.62463 -0.0918065 -0.799748 -0.244108
216 1 -0.948597 3.72733 -3.86288 0.66045 0.130249 0.919994
968 2 -1.09408 4.15705 -0.997313 -0.764577 0.399813 -0.195111
47 1 -0.060178 0.835065 -2.37761 -0.51345 -0.40989 0.651514
33 1 -0.925542 0.174021 -2.36494 0.0378465 0.316177 -0.240828
267 1 -4.08375 2.50111 -2.95493 0.416487 -0.570735 0.152973
822 2 -3.18288 1.83453 -3.87409 0.141658 -0.223246 0.827106
864 2 -1.63568 1.89842 -1.0558 0.219388 0.795513 1.66616
866 2 -3.52681 0.953978 -3.59765 -0.145526 0.789394 0.250991
422 2 -1.16595 1.2071 -3.5471 0.352827 -0.483149 0.649604
28 1 -1.83367 3.96966 -2.28781 -0.848188 0.423109 0.217739
1010 2 -1.79632 2.67048 -3.71954 -0.139506 1.43146 0.660017
68 1 -0.248892 2.93379 -3.80833 -0.190273 -0.171068 -0.752401
1162 2 -0.39928 0.384429 -2.53009 -0.304275 0.613402 0.94533
1030 2 -2.67634 1.21172 -0.407266 0.236161 0.295176 -0.258603
1188 2 -0.593064 0.286498 -0.987828 0.430354 1.1725 0.117723
876 2 -2.85702 0.549156 -3.10637 -0.0478143 0.35355 0.102669
496 2 -3.83812 4.02263 -1.81826 0.0403177 1.28962 0.584406
1157 2 -2.56108 2.79674 -2.0374 0.951159 -0.00930016 0.115647
4 1 -2.34259 2.35163 -2.26597 -0.0371273 0.8661 0.784728
513 2 -0.457172 2.64353 -3.35471 -0.613686 0.0943021 1.2095
313 1 -1.45372 1.61621 -3.25705 0.555787 0.54313 -0.627098
390 1 -0.174345 2.31617 -2.01818 -0.0100653 0.317091 0.447204
64 1 -0.790699 2.4216 -2.93883 -0.384191 -0.586818 0.742412
588 2 -0.6998 3.57288 -2.46256 0.309504 0.695928 -0.698134
892 2 -3.0878 4.39858 -3.1809 1.06336 0.77282 -0.0785904
31 1 -3.82486 1.7821 -0.977233 0.122643 -0.761447 -0.0515566
1166 2 -4.23966 3.47975 -4.1592 0.526776 0.191605 0.599638
472 2 -1.93382 2.1945 -1.90613 0.470026 -0.636318 -0.367309
1163 2 -3.79712 1.44111 -4.44566 -1.05233 -0.297155 -1.02476
451 2 -1.64277 3.48116 -1.10226 -0.518094 0.250725 -0.1046
179 1 -4.43081 3.26021 -1.28729 -0.732018 -0.638456 0.273128
1091 2 -2.18749 0.910684 -2.08081 1.32154 -1.97638 -0.630519
349 1 -3.22486 2.34845 -3.61831 -0.80562 0.862527 0.401096
24 1 -2.53854 3.31414 -1.79954 -0.466326 -0.447436 0.397641
333 1 -3.34455 0.819363 -3.07657 0.937077 0.454465 -0.00668011
379 1 -0.818761 0.794764 -0.885703 -0.657333 0.136006 0.382616
471 2 -4.30571 0.76236 -4.24496 -0.586602 -0.452115 -0.14506
440 2 -2.27921 0.812291 -1.25786 -0.844272 -0.192581 0.258546
994 2 -3.09623 3.48445 -1.7771 -0.190544 0.453716 0.586441
484 2 -3.84602 3.4495 -2.46618 0.974334 1.3733 -0.222079
274 1 -1.13081 3.39697 -2.81471 -0.710962 0.424216 -0.316104
416 2 -0.32756 2.81652 -1.76135 0.567308 0.193156 -0.566134
148 1 -3.11006 1.51891 -2.26496 -0.562087 0.0794474 0.200018
687 2 -1.18738 1.6733 -1.73442 0.350653 -0.635563 -0.373849
860 2 -3.79252 0.135254 -0.326405 1.14405 1.02134 -1.47088
330 1 -4.33506 1.33328 -4.27979 -0.234635 -0.0888713 0.138587
332 1 -4.0384 2.03726 -2.01477 0.364031 0.163235 1.06409
147 1 -1.51626 2.11546 -1.56457 -0.668811 0.56198 -0.71636
309 1 -0.659316 1.47176 -1.70806 -0.476334 0.635996 0.464497
566 2 -1.27273 0.60974 -2.29762 -1.33993 0.0199082 0.650372
65 1 -4.31799 0.00907709 -1.62007 -0.128973 -0.0731705 0.291233
586 2 -2.35555 2.00879 -0.572782 0.303207 -0.512775 -0.226523
725 2 -3.89301 2.02093 -1.47909 -0.967605 -0.00729163 -0.576899
906 2 -1.3212 0.409526 -4.00371 -0.407273 -0.201505 -0.466385
46 1 -0.385211 2.82633 -0.345615 0.389509 -0.036857 0.615801
526 2 -1.70661 2.21631 -0.0192903 -0.458107 0.305222 -0.679464
510 2 -0.547386 2.98775 -0.852482 -0.364772 -0.164999 0.173487
505 2 -2.73616 4.09361 -3.9785 0.855949 0.202174 0.158474
1193 2 -0.626169 1.134 -1.28122 0.200367 -1.58719 1.00178
381 1 -4.26156 0.2866 -2.69668 -0.580926 0.201219 0.123168
206 1 -4.192 4.15638 -0.674697 -0.232765 0.0522144 0.286902
880 2 -0.831023 4.27109 -3.85233 1.65247 -0.470647 -0.761349
435 2 -2.0773 3.87597 -4.48385 0.123708 0.489632 0.069498
351 1 -4.38915 2.55837 -0.440117 0.11259 -0.0886158 0.917025
998 2 -2.73476 3.28922 -4.4307 0.318715 -0.500071 0.615177
375 1 -2.4286 0.869827 -0.0482008 0.515415 -0.0900578 -0.693032
703 2 -3.72825 4.12862 -0.365485 0.0205565 0.219159 1.27004
1072 2 -4.13862 2.87724 -0.0272632 -0.152626 0.493131 -0.200384
933 2 -4.21422 3.8652 -3.33168 0.287623 -0.0884935 0.124656
1151 2 -1.85228 0.0714547 -1.23078 -0.997907 -1.25077 -0.761484
714 2 -4.33858 3.72918 -0.969522 -1.12389 0.145239 0.404996
230 1 -3.15868 4.39828 -3.76724 -0.205101 -0.783537 0.0170886
775 2 -0.878221 2.5858 -0.174862 0.0112943 0.290057 0.888928
1059 2 -3.69358 4.19303 -3.92524 1.32622 1.13273 -0.616653
369 1 -4.11314 0.253736 -4.13007 -0.573415 0.534932 1.58949
768 2 -4.3305 1.52445 -3.7524 0.0864812 0.116923 -0.0774874
399 2 -0.260785 3.33711 -0.0436089 0.151737 -0.60628 0.641828
297 1 -1.33779 2.66054 3.83661 0.086171 -0.223253 0.212818
707 2 -0.717546 1.8669 4.21978 0.883449 -0.398316 -0.203223
134 1 -1.95674 3.33569 0.974156 0.236303 -0.0469324 -0.00884245
204 1 -0.0700926 2.87049 1.21425 0.748696 0.367279 -0.60452
187 1 -1.17681 2.29793 0.18251 0.147674 -0.264579 -0.694439
3 1 -2.74298 0.197237 2.782 0.240224 0.45877 0.187056
261 1 -1.11941 2.79997 1.08389 0.30779 0.230482 0.363622
481 2 -1.64846 2.48829 3.4012 -1.05923 1.31864 0.560931
391 1 -1.27378 0.166779 2.71297 0.601105 -0.210431 0.624661
793 2 -1.41498 3.25482 0.864512 -0.653656 0.760474 1.43655
54 1 -4.39668 3.13499 4.40729 0.409481 -0.546835 0.185959
739 2 -2.20859 1.96611 1.40646 0.296725 0.531966 0.858634
454 2 -0.0758167 2.3743 1.50197 0.670387 0.455711 0.939967
697 2 -0.890112 1.28266 2.23365 0.120522 -0.31713 0.0055417
808 2 -3.07492 4.45203 3.22411 0.236207 -0.745402 -0.0258549
975 2 -3.38286 1.1203 1.92263 0.760344 -0.176786 0.0677466
1194 2 -2.18677 0.760795 4.08046 0.509076 0.171751 1.13545
1070 2 -4.33625 0.931903 3.32081 0.0913346 0.128953 -0.633765
590 2 -2.74433 2.21703 0.807587 0.32892 -1.0331 -1.51836
19 1 -1.0108 4.32165 3.45886 0.459167 0.254334 -0.425474
1135 2 -2.98421 3.97342 1.12001 0.0168477 0.687501 0.229998
318 1 -2.12717 2.11658 4.1912 -0.589748 -0.520907 -0.531212
455 2 -3.98537 0.39289 0.566649 -0.021917 -0.483344 0.545576
1066 2 -1.06288 2.26231 2.35756 0.804125 1.30092 -1.79931
668 2 -3.31447 1.03005 0.958158 -1.54353 0.870136 -1.08164
372 1 -1.18974 0.901143 0.945879 -0.698547 -0.96427 -0.132594
387 1 -2.89423 2.75961 4.45298 -0.23436 -0.617022 -0.451251
1149 2 -0.985771 3.97276 3.04059 0.113906 -0.241805 -1.19458