LAMMPS (19 Nov 2024 - Development - )
############ CREATE LOG FILE ############
log ${simulation_path}/log.txt
log /home/adi/workspace-directory/courses/iitr-phn600b-msc-thesis-project/code/../runs/nvt_cool_sample_rdf/log.txt
