ITEM: TIMESTEP
0
ITEM: NUMBER OF ATOMS
501
ITEM: BOX BOUNDS pp pp pp
-3.3572466328349999e+00 3.3572466328349999e+00
-3.3572466328349999e+00 3.3572466328349999e+00
-3.3572466328349999e+00 3.3572466328349999e+00
ITEM: ATOMS id f_aveg_velocity_dist[1] f_aveg_velocity_dist[2] f_aveg_velocity_dist[3]
136 0.242727 0.120668 -0.095332
120 -0.634725 -0.657078 0.534602
200 0.0109526 -0.105932 0.394411
272 0.672572 -0.596879 -0.146181
184 0.0401205 -0.0291784 0.417739
280 -1.6863 0.759133 0.261706
296 0.158832 1.40976 -0.252778
8 0.320919 0.813184 -0.387862
304 -0.238614 0.190692 0.339825
24 0.719301 0.275616 -0.43948
401 0.136577 -0.334215 0.845608
97 -0.582486 -1.14343 0.113864
265 -0.536924 -0.733953 0.085492
25 0.24853 -0.157327 0.425515
169 0.274158 0.95932 0.345169
1 -0.408089 0.105209 0.465321
225 0.22552 0.574729 -1.14255
426 0.370532 0.301415 1.06908
442 -0.871066 0.662463 0.26408
314 0.44153 0.488421 -0.622059
322 -0.722529 -0.478254 0.211208
234 1.20526 -0.427909 -0.445194
242 0.19866 -0.236661 0.00786685
266 -0.432668 -1.19102 -0.640068
18 -0.534567 0.214486 -0.568993
186 0.209124 -0.225579 -0.11545
194 1.73658 0.497803 0.213841
66 -0.257961 -1.53642 0.892277
155 -0.0984555 -1.01512 -0.97079
483 0.874403 -0.12393 1.02033
451 -0.0284621 -1.1998 0.607089
115 -0.384195 0.457639 -0.354679
419 0.234084 0.0764398 1.18721
99 0.198327 1.02954 -0.47442
275 0.4577 -0.0732601 0.921608
3 1.43454 0.297935 -0.414635
428 0.393218 -0.631681 -0.563498
332 0.802773 0.525777 1.04145
340 0.357264 -0.294611 -0.211135
220 -0.051346 -0.401012 -0.0974135
228 -0.00117133 1.23889 -0.0592115
20 -0.16408 0.614256 0.404447
4 -0.448806 0.859131 0.318838
109 -0.390867 -0.73355 -1.00754
37 -0.318876 -0.686998 0.000748477
13 -0.336426 0.113591 -1.19658
173 -1.0516 0.562397 -0.273816
454 0.153456 -0.456575 -0.839223
478 -0.545078 -0.283025 -0.6525
422 -0.19654 0.130758 0.978729
102 0.266786 0.537072 0.217925
350 -0.277115 -0.0625839 0.724349
142 0.597374 -1.42653 0.269849
286 0.129803 -0.240232 -1.19635
238 -0.191383 -0.202827 -0.525011
174 -0.527079 0.184673 -0.499926
6 1.30422 -0.19562 -0.460246
439 -0.464877 0.716605 1.48555
383 -0.697134 0.0499939 -0.0307288
399 0.843028 0.656665 0.904285
103 -0.077044 -0.605857 1.09475
351 0.211507 0.241802 -0.439218
343 -0.790921 0.711806 0.635201
215 -0.0596124 0.717832 1.04262
39 0.0626206 -0.227759 -0.23735
255 -0.831581 -0.465701 -1.40246
167 -1.04648 -0.543483 -0.0199171
199 -0.15237 -0.536362 -0.267078
273 1.19033 0.590546 -1.14931
177 0.9151 -0.442597 -0.0138168
209 1.14214 -0.497959 -0.722936
49 0.275873 0.391842 -0.202402
233 1.25826 -0.075537 -0.0871397
216 1.0101 0.517606 0.330769
152 0.454283 -0.388519 -0.888385
480 0.231878 -0.00967795 0.203811
384 -0.709878 0.329183 0.177398
408 0.34317 0.614259 0.00362984
376 -0.584358 -0.240535 -0.580315
40 0.259503 -0.265647 -0.0359093
232 0.431876 -1.29783 0.805408
240 0.42239 0.968837 -0.243303
264 0.846728 -0.00470493 0.187723
306 0.879003 0.760566 -0.693154
482 1.11022 -0.712572 0.150701
42 -0.365757 0.0560522 0.794982
226 -0.295148 0.843937 -0.657962
258 0.144789 0.118611 0.295447
34 -0.046044 0.172473 0.16901
499 -0.196069 1.08852 -0.185515
331 1.25805 -0.506551 -1.01948
283 1.22576 -0.227839 0.260889
315 0.789001 0.642824 0.536433
43 0.591399 -0.786889 -0.628238
251 -0.214712 0.390075 -1.79883
164 -0.131168 0.179954 -0.782857
460 0.972313 0.0263596 -0.508548
412 0.764748 0.692939 0.505483
316 -0.19916 -0.809369 -1.07037
324 -0.382435 -0.859062 0.333611
76 -0.0790456 0.368319 0.448363
284 0.497412 -0.163989 -0.949528
44 -0.254007 -0.103195 -1.03906
252 0.498023 0.10822 -1.20294
36 -0.690237 -0.345599 0.0420243
196 0.139868 -0.172879 1.09916
493 0.23948 0.359339 1.44598
437 -0.65951 -0.124187 0.361422
445 0.333673 -0.657728 1.21321
85 -0.299179 -0.010923 1.2527
93 -0.902801 -0.103047 0.571341
325 -0.749865 -1.43374 0.980733
333 -1.0969 -0.0503806 0.14715
45 0.884861 -0.0254223 -0.322376
53 0.442141 1.3358 0.526066
221 -0.245441 0.691208 0.162584
229 -0.300589 0.130513 1.11741
245 0.743493 -0.38036 0.163766
158 -0.0706104 0.0802516 -0.1331
382 -1.13669 -0.13341 1.46199
390 0.539375 1.00093 0.0808798
86 -0.381879 0.0307071 -0.578603
326 0.848189 -0.367533 0.0459606
294 0.0350741 -0.0149268 0.33549
46 -0.410102 0.511337 -0.567754
14 -0.624065 0.146617 -0.423658
182 0.844708 -0.184871 0.751067
319 -0.234084 0.382207 0.0542128
335 0.123336 -0.464003 -0.427139
15 -0.541256 0.370058 -0.590492
23 -0.832947 0.23942 0.697601
191 0.845124 0.32576 -0.333952
466 1.22652 1.02416 0.163942
250 0.088675 0.29088 -0.0403634
178 0.367561 0.0191374 -0.502521
202 0.762774 0.624553 0.404461
274 -0.941383 -0.215301 -0.0691079
210 -0.28622 0.130743 0.0104187
424 -0.689072 0.447015 0.131675
112 1.11112 0.0330683 -0.0844636
80 -0.54658 0.389136 -0.168784
72 0.0398533 0.463015 0.360645
176 0.187439 0.325947 -0.165533
64 0.99144 0.0458186 0.00370901
56 0.640841 1.02925 0.387564
224 -0.164389 0.483976 0.14595
465 1.33956 0.814326 0.450924
153 0.222642 -0.254724 -0.0043597
81 -0.539847 0.88159 0.187968
297 0.630748 0.641801 -0.11218
17 0.532766 0.313185 -0.477701
185 -0.761565 0.616856 -0.119544
443 -0.425542 0.201137 -0.127425
131 0.071418 1.11467 0.397884
387 0.161438 -0.499065 0.0130141
307 -0.563512 0.084232 0.329661
235 0.0532618 0.021396 2.27987
259 -0.128952 -0.420259 0.675816
19 0.401129 0.0411899 -0.525136
187 -0.319292 0.11167 0.76665
468 1.1087 -0.629064 -0.848826
364 -0.29371 1.33727 0.034207
404 1.73235 -0.221727 1.34978
92 -0.718797 -0.893889 -0.147652
308 -0.861906 0.671278 0.352748
276 0.295433 0.553058 0.098099
300 -1.46317 -0.830735 0.386421
356 -0.14292 -0.863627 0.389035
244 -0.809106 -1.98542 0.968548
12 0.390156 0.338994 1.15442
28 0.551068 -0.48684 0.0738648
469 -0.011625 0.108629 -1.03326
269 -0.21766 -0.790566 0.278888
277 0.302195 -2.00062 0.446839
293 1.74295 -0.408005 1.96832
261 0.195638 -0.660621 -0.468892
213 0.242925 -0.987136 -0.0881561
150 0.267049 -0.637512 -0.473861
126 0.124919 0.674637 -0.0247064
446 0.252577 -0.544329 -0.0251713
310 0.0592551 0.802022 0.865003
78 0.491894 -0.207283 -0.0228506
70 0.011493 1.389 0.602705
230 -0.0345517 -0.166577 -0.255377
198 -0.427331 -0.181505 0.677446
375 0.904217 -0.213812 -0.811031
327 -0.831477 -0.0428391 -0.904391
71 -0.34226 -0.024386 -0.0755574
279 -0.657032 0.398889 1.53348
247 0.23326 -0.783794 0.817076
183 -1.10174 0.888642 -0.382885
459 -0.942503 0.787612 -0.685115
427 0.00756364 0.078208 -0.38131
339 -0.49292 -0.125957 -0.000163818
123 -0.84865 0.280298 -0.680451
291 -0.350315 1.16973 -0.597656
59 0.234004 0.832489 0.535795
91 -0.941259 -0.308054 0.348371
83 0.735341 -0.372894 -0.677594
267 -0.263744 -0.984 -0.636015
464 -1.32316 -0.922927 -0.427561
488 -0.550422 0.174957 0.144163
208 0.196401 0.373087 0.651177
192 0.390874 -1.08374 -0.319762
328 0.712364 0.979302 -0.608559
336 -0.939105 -0.20507 0.513304
489 -0.629942 0.279461 0.721972
145 0.453927 0.181254 -0.701005
313 -0.259363 -0.23706 -0.36055
337 0.444481 0.227649 -1.12897
345 0.933795 0.389468 -0.0549752
281 0.156432 -0.0065009 0.55079
305 -0.227625 0.0468239 -0.056282
298 -1.33898 1.32405 -0.46514
138 -0.830245 -0.0651942 0.135953
146 -0.0779375 0.940202 -0.0584669
450 -0.961394 -0.307568 0.00854137
330 -0.450109 -0.702017 -0.43365
346 -0.330933 -0.0108801 0.419451
26 0.964411 0.288334 0.0200398
282 -0.426224 -0.269172 -0.926425
74 0.624875 -0.225963 0.0918605
156 0.294888 -0.155953 0.269493
436 0.0143869 0.245956 0.569158
84 0.71618 0.465643 -0.00997072
68 -0.538679 0.558621 0.0824654
60 -0.305142 0.221617 -0.230018
52 0.400638 -0.21539 -0.122084
268 -0.625838 -0.586196 0.37926
461 -0.0204099 -0.000125826 -1.10417
501 0.160601 0.162864 -0.376512
453 -0.781675 0.142639 0.194286
125 0.583148 -0.48412 -0.299631
317 0.45381 0.618008 1.00199
341 0.705605 0.519043 -0.748377
77 -0.291267 -0.54745 0.126295
237 0.129515 -0.279005 0.13466
5 -0.726716 -0.845802 -0.245543
462 -0.135769 -1.331 -0.0111139
494 0.480819 0.119175 0.10397
430 0.70747 1.21007 -0.0802608
94 0.17792 -0.168376 0.265226
62 -0.333545 0.0852662 -0.467454
302 0.936185 0.294622 -0.239658
246 0.0276395 -0.351129 -0.273221
254 -0.625587 0.31242 -0.611352
262 0.43715 0.166416 -0.639894
447 0.297768 -0.24186 -0.0619124
127 0.526135 0.451104 -0.675214
271 0.371726 1.07367 0.871645
63 0.386228 -0.401292 0.560915
303 0.858309 -0.228379 -0.317717
124 -0.41166 -0.873338 0.345131
396 -0.453362 0.22826 0.529104
236 -1.09642 0.875006 1.59877
180 -0.0274355 -0.35461 0.273305
212 -0.282201 -1.10767 -0.37397
100 0.335396 -0.287489 -0.0506672
108 0.559273 0.100666 -0.536332
472 -1.09772 -0.147777 -1.49981
456 0.853856 0.477569 0.291878
128 0.492954 -0.204312 -0.104314
416 0.0928103 0.072467 -1.52084
368 0.0911222 -0.816159 0.557569
96 -0.609717 -0.216081 0.173562
168 1.49863 0.944106 -0.578503
16 -0.0818046 -0.318805 -0.0887196
256 -0.565753 0.417643 0.616671
497 0.285295 0.890465 0.436188
457 0.0375732 0.232225 0.723256
353 -0.567169 0.532026 0.515851
377 -0.596209 0.267227 1.39243
217 0.574827 1.2078 -0.130518
241 -0.887024 -1.09691 0.424497
122 -0.355673 0.0471068 -0.400302
402 0.0624875 -0.346975 0.268213
114 0.113451 0.060398 -0.098603
354 -0.0175772 -1.11961 0.287115
362 -1.08633 1.61967 0.829711
378 0.30104 -0.357791 0.608059
10 -0.436173 0.184523 -0.770534
170 1.07395 -1.1466 0.0473164
107 0.471707 -0.21393 -0.381497
355 -0.984438 -0.112863 -0.0997445
371 -0.0426695 0.39276 -0.0421991
379 1.72709 1.00687 -0.1735
211 -0.694471 0.939966 0.371829
243 1.40889 1.2191 0.051561
35 0.0732661 -0.757376 0.0535476
11 -0.504301 -0.899524 0.890553
27 -0.0105013 0.336936 0.272827
203 -0.239088 0.376789 0.279213
101 0.0937009 -0.331599 -0.979075
349 -0.277327 0.054712 0.71066
365 -0.195853 -0.883328 -0.0350918
373 -0.448943 0.241664 0.478179
253 0.117435 -1.10217 -0.698453
21 -0.36873 -0.552698 0.338889
181 0.20747 -1.22567 -0.483661
189 0.123112 0.124103 0.0180612
197 -0.664137 0.524658 1.0305
205 -1.14104 0.682627 -0.453125
398 0.0182099 1.08377 0.391679
406 0.324337 -0.498733 -0.208545
110 -0.377202 1.09869 0.353295
358 -1.30937 -1.13669 0.271661
38 -0.191245 -1.18412 -0.394729
22 0.88951 -0.161252 -0.117508
30 -0.166637 0.858806 0.138306
206 0.755168 -0.156978 -0.35214
111 0.362299 1.40363 -0.59312
359 1.11483 -0.217609 0.21596
367 -0.66021 0.744796 -1.5009
421 -1.40608 -0.117101 -0.208571
157 0.176375 0.353756 0.00726486
405 1.09003 -1.23868 -0.243914
357 0.475372 -0.0842243 0.549142
117 -0.112708 0.0601949 0.284894
389 -1.05946 1.02276 0.0866009
309 -0.602037 -0.584842 0.611015
496 0.498977 0.137123 0.209263
104 0.583458 -0.554086 0.138745
88 0.093074 0.386657 1.00795
32 -0.982344 -0.170685 -0.583764
48 0.42262 0.642449 -0.300553
248 0.50565 -0.295025 -0.946239
33 0.380558 -0.0778017 0.695617
481 0.194042 0.293253 -0.699324
433 -0.402092 0.0786974 0.634526
121 0.711334 -0.576938 0.274703
393 -0.304642 0.68048 0.321099
409 0.0825627 0.0738439 -0.0889449
417 -0.299026 0.239527 1.39788
369 -0.514938 -0.336569 0.67765
65 0.0947029 0.856127 0.123172
9 -0.405363 -0.674797 0.158989
257 -0.511286 -0.225834 0.117078
57 0.0766642 0.537065 -0.0602436
490 -1.0495 0.316268 -0.78223
498 -1.55921 0.36253 0.923601
386 0.206326 0.293669 0.536436
418 0.134741 -0.220584 -1.5437
50 0.595262 0.441594 -0.298085
58 0.198223 -0.663876 0.346513
218 -0.864256 -0.702462 0.585136
467 -0.268155 -0.347791 0.790784
411 0.522665 0.519012 -0.599149
51 -0.583731 -0.748451 0.3357
219 -0.0943859 0.566741 1.28366
171 -0.196073 0.825842 -0.94216
195 1.0257 -0.764769 0.0160482
484 -0.712776 0.749147 -0.321574
148 -0.348034 0.234333 -0.703426
444 -1.01473 0.324182 0.402593
372 0.847545 -0.574254 0.00718155
116 -0.482449 -0.398594 -0.000116122
420 -1.73179 1.30905 1.55791
260 0.593911 0.796541 0.139001
188 1.47968 0.0694504 0.570212
486 -0.157806 0.447427 -0.182558
118 -0.816082 -0.00456351 1.27716
374 -0.509472 -1.13677 -0.990889
54 -0.48317 0.64337 -0.773815
487 -0.0482377 -0.439516 -1.06122
479 -0.276718 -0.867283 -0.145453
119 -0.0542607 -0.668004 0.173175
391 -0.627885 0.467664 -0.129426
407 -0.082303 -0.786041 -0.596804
423 -0.460531 0.488066 0.570685
95 -1.26874 -0.31217 -0.362352
463 0.325339 -0.535396 -0.0549008
79 0.299205 0.416009 -0.451072
295 -0.455309 -0.286067 -0.483473
47 0.366022 -0.498641 -0.045313
223 1.43678 0.529823 0.40752
239 0.731746 -0.20486 -0.611297
263 0.429382 0.0930457 -0.0568538
31 0.157398 0.483332 -0.0101262
414 1.29603 0.366803 -0.462865
366 0.551734 0.14514 -0.76673
438 0.256074 -0.597638 -0.351278
318 -0.511071 0.332631 -0.288245
334 -0.620397 -0.00344118 0.420229
166 0.033718 -0.650032 -0.502206
214 -0.83013 0.930701 0.403337
190 -1.05927 -0.182224 -1.15317
144 0.625192 -0.182585 0.254564
432 0.622416 -1.18384 0.391305
440 0.441665 -0.538216 0.180398
352 -0.256724 0.879633 -0.398179
425 -0.236542 -0.666714 -0.124338
441 0.0891438 0.540628 -0.784492
449 0.906039 -1.12526 -0.697965
113 -0.419232 -0.00484533 0.645188
361 -0.855683 0.271205 0.212107
73 -0.0286222 -0.734451 -0.299487
193 0.483608 1.25866 -0.668516
201 0.393734 -0.154527 -0.57148
249 0.281659 0.392039 0.0514946
41 -0.173829 0.832839 0.203677
154 -0.646579 -0.595669 0.715533
474 -0.00819377 -0.21519 -0.779777
434 -0.0337987 -0.241483 -0.107656
458 -0.686779 -0.267548 0.997695
130 0.0835576 0.183961 -0.919704
394 -0.34389 -1.52112 -0.344343
410 1.17314 0.2536 -0.636311
106 0.563274 0.126549 0.418229
98 0.526679 0.209553 0.35231
90 -0.539714 -0.256643 0.244474
347 0.37972 1.88299 -0.978249
139 -0.580664 -0.506686 0.158174
147 -0.738077 -1.16139 0.0654968
435 0.342458 0.614685 0.0829893
67 0.134443 0.0974241 -0.0536559
227 0.407031 -0.474447 0.504099
380 0.369253 -0.0428009 0.713452
492 0.744301 -1.11062 -1.39047
140 -0.256238 -0.0734988 0.0191598
132 -0.159544 0.226205 0.562931
452 0.820786 0.109784 0.615061
413 0.652577 1.2546 -0.542022
397 0.911473 -1.15951 -0.0629779
485 0.548073 -0.321174 -1.54705
141 1.23644 -0.219825 -0.549316
429 -1.07264 0.0836943 0.813007
133 -0.186379 -0.734605 0.605467
285 -0.292534 0.109658 0.293286
61 -0.139541 0.41865 -0.0643437
301 -0.302437 0.314391 -0.534505
29 0.487215 1.16956 -0.010613
495 -0.712795 -0.572291 0.130419
135 0.69247 -0.0489303 -0.147286
455 0.422132 -0.582032 -0.215999
415 0.0919137 -0.774325 0.0764022
159 -0.956703 0.0131032 0.55538
287 -0.86343 0.720964 1.05811
231 -0.356846 0.415353 -0.505892
175 -0.464564 0.319486 -0.910965
7 -0.139827 -0.131611 -0.58679
143 -0.256933 -1.09081 -0.360407
431 -0.556871 -0.0247493 1.44188
87 -0.208559 -0.147434 0.403166
151 0.887964 -0.329012 -0.11615
471 0.315932 1.3152 0.811486
311 0.132719 1.77859 -1.16643
55 -1.77082 -0.842598 -0.55644
207 -0.041505 -0.031482 -0.845638
160 -0.91743 0.15798 0.659521
448 0.0420487 -0.0418021 -0.00940882
392 0.0966567 -1.09767 0.594396
400 0.915202 -1.83503 -0.731228
360 -0.954945 0.0635834 -0.375644
312 0.142836 0.949339 0.264297
320 -0.634922 0.10001 0.79459
344 -1.15319 -1.16182 -0.0639383
288 -0.897175 -1.09986 0.0300598
161 0.709073 -0.371231 0.139551
473 0.828571 0.598313 -0.745814
137 0.0272927 -0.837415 -0.00112093
129 -0.0497457 -0.0871983 0.217469
385 -0.0292283 -0.833937 0.125332
105 -0.0465147 0.00280336 0.0564615
89 -0.386527 0.416253 -0.22324
321 0.630416 0.0227222 0.256727
329 -0.84926 -0.732134 0.443139
289 -1.46493 -0.908498 -0.793528
162 -0.440289 0.379122 -0.0439698
370 0.419323 0.0240776 -0.918589
82 0.19239 0.628109 -0.245435
338 -0.417946 -0.37594 0.765811
290 0.0760744 0.785109 0.834504
2 0.100424 -0.0379833 0.967599
75 -0.730622 -0.0124819 -0.574691
163 -0.402761 -0.80321 0.453822
475 -0.747502 0.253198 -0.326701
491 -0.271812 -0.455484 -0.135478
323 0.623721 0.797105 -0.0466474
395 0.189653 -0.778246 -1.0323
403 -0.033707 -0.894955 0.901234
363 -0.155405 0.999593 -0.327056
299 0.466375 1.06424 -0.514714
179 0.719447 0.156141 -0.527603
476 0.110579 -0.357601 -1.04085
500 0.511688 0.249706 1.81473
388 -0.565552 -0.982152 0.48661
292 -0.183268 0.390468 -0.371036
172 -0.524273 0.569293 -0.586779
348 0.959188 -0.625338 -0.483529
204 0.175714 0.507763 -0.921412
165 0.181721 -0.387281 -0.322463
477 -1.54405 -0.0485066 -0.485778
149 0.950476 -0.695989 -0.339326
381 0.574311 -0.856369 -0.983688
69 -0.721759 1.35988 -0.0462967
470 0.193714 1.80202 0.483737
134 0.361583 -0.0718658 -0.476525
342 0.816938 -0.3795 -0.787121
270 1.13797 0.296996 0.344883
278 -0.750148 -1.24409 -0.196237
222 -0.597453 0.224219 0.604653
ITEM: TIMESTEP
10000
ITEM: NUMBER OF ATOMS
501
ITEM: BOX BOUNDS pp pp pp
-3.3572466328349999e+00 3.3572466328349999e+00
-3.3572466328349999e+00 3.3572466328349999e+00
-3.3572466328349999e+00 3.3572466328349999e+00
ITEM: ATOMS id f_aveg_velocity_dist[1] f_aveg_velocity_dist[2] f_aveg_velocity_dist[3]
136 0.277231 0.45677 0.303659
120 0.137528 -0.333887 0.521602
200 0.690833 -1.23761 0.447791
199 0.802152 -0.129415 -0.772424
483 -0.025337 -0.211446 0.552715
280 -0.648727 -1.44287 0.829386
296 0.718737 0.224659 -0.0212626
155 0.557846 0.17589 -0.0839887
304 -0.624139 0.459772 0.347117
24 -0.480804 0.584514 0.765076
401 -0.480074 1.18988 -0.122939
97 1.03299 -0.357792 0.856817
265 0.146588 0.395808 -0.725775
25 0.704754 0.4469 0.461728
169 0.191654 0.21513 0.249381
286 -0.0667525 0.29742 0.854371
225 0.015015 1.48892 -0.0981688
103 -0.320605 0.124142 -1.45019
442 0.788152 0.530867 -0.221688
314 1.31716 -0.470468 -0.787865
322 0.932292 0.166978 -0.330076
234 0.830992 -1.33981 -1.3646
242 0.922602 0.58323 -0.354251
343 -0.137259 1.28502 -0.837579
18 -0.551172 0.359217 0.464613
186 -0.0566542 -0.30436 -0.176667
194 -1.9651 0.751613 -0.566441
66 0.0021282 -0.00902348 -0.662545
76 -0.0275838 -0.271747 0.234799
266 0.0701295 -0.71089 0.0520696
451 -0.887 0.243651 1.20284
115 -0.348718 -0.598203 0.351459
419 0.462878 -0.0195239 0.0780978
99 1.07929 0.246694 0.0622344
39 -0.268527 -0.7019 0.615191
3 1.14853 0.66596 -0.46009
428 0.523126 -0.00769997 0.396127
332 0.0486469 -0.208404 -0.410673
340 0.0329357 0.352772 -0.431877
220 0.38392 0.15719 0.697038
173 -0.328515 0.243604 -1.25477
20 -0.0473629 -0.613097 0.620349
4 0.309946 -0.350246 0.941497
275 -0.115365 0.0870294 0.289913
37 -0.362521 -0.473449 0.238888
13 -0.0165965 0.653382 0.0499596
399 0.379641 -0.352715 0.107496
454 0.681979 -1.50434 -0.208669
478 0.530879 -0.59679 -0.47304
351 -0.220641 -0.128445 0.959169
215 1.13625 0.306479 0.138306
350 0.0797589 -0.905352 0.390681
383 -0.433637 0.902181 0.432625
167 -0.583203 0.139423 -1.21057
238 -1.42361 0.0213281 0.402777
174 0.21012 -1.14748 -0.430168
6 -0.244956 0.401379 0.264989
439 0.440314 -0.2867 -0.0128469
102 0.691826 0.261301 -0.144762
1 -0.294069 -0.399161 -0.170041
426 -0.431729 0.18664 -0.545149
228 -1.78337 0.579234 -0.392438
412 0.223974 0.113221 1.9725
255 -0.505317 0.392009 0.659936
272 -0.513087 -0.00690959 -0.220017
184 0.231922 0.568745 1.58816
142 0.124686 0.357057 -0.0240709
8 0.0121985 0.610611 -0.031236
178 0.377819 -0.682057 1.00011
10 -0.426494 0.503107 0.22997
158 -0.676576 0.102035 0.360783
109 -0.0688616 0.573936 0.743592
273 0.590787 -0.116479 0.341387
177 0.566229 0.184735 -1.24252
222 1.01111 0.552321 -0.0126719
49 -0.110803 0.342843 -0.943026
233 -1.48055 -0.508334 0.177297
216 0.0677477 2.00533 0.184427
152 -0.860367 0.0788074 -0.305264
480 -0.463755 -0.0207034 -0.916599
384 0.0646766 -0.398783 1.00817
408 -0.486042 0.226855 -0.0195348
376 -0.198372 0.594263 -0.770739
40 -0.391492 0.254985 -0.84523
315 0.602352 0.375064 -0.507301
240 0.0796832 0.441872 0.146405
264 0.453693 -0.779374 -0.592026
306 0.0600075 1.20429 0.364429
482 0.382585 0.995196 0.931331
42 -0.247497 -0.367131 0.205226
226 -0.0926256 -0.740031 0.0818483
258 -0.132285 0.648706 1.14275
34 0.0515403 0.835595 -0.123316
499 -0.0930277 -0.620638 0.275498
331 0.540484 -0.316372 -0.470733
283 0.679448 -0.450103 0.273203
422 -0.0529367 -1.07049 1.47265
43 -0.612795 0.0937808 -0.296589
251 1.19477 0.315611 -0.420814
164 -0.0705766 0.131833 -0.200985
191 -0.399187 -1.28227 -0.257607
23 -0.977918 -0.0377898 -0.500331
316 -0.991493 0.380693 -0.736731
324 -0.720143 0.078632 -0.584246
294 -0.0553904 0.379724 0.332258
284 0.122278 0.623808 0.366485
44 0.675485 0.358567 0.0757438
437 -0.125457 -0.736467 -2.09962
36 0.26447 -0.796069 0.501042
196 0.795322 0.684318 1.88412
493 -1.18824 -0.300312 -1.46042
232 -0.641423 1.99835 0.0136774
445 -0.395133 -0.452844 -0.352026
85 -1.24986 -0.00636487 -0.669991
93 0.0913497 0.721408 -0.55561
325 0.669839 0.800475 -0.358658
333 0.315553 0.203081 -0.394816
254 -0.492473 -1.21619 -0.138031
53 -0.0373068 0.389685 -0.356017
221 -0.853642 -0.812118 0.518629
229 1.64905 -0.393451 0.180042
245 0.296367 -0.405188 0.127762
252 -1.13126 -0.56714 0.093891
15 0.179315 -0.0545874 0.37305
209 -0.161058 -0.00783358 0.27016
86 -0.476059 0.352632 -1.32356
326 -1.14367 1.38662 -1.71968
45 -0.441081 -0.144824 0.769077
46 0.306624 -0.0240538 0.299903
14 1.639 -0.288771 0.192009
182 1.11344 -0.153079 -1.12794
335 -0.173394 0.305822 -1.16545
79 -0.0823605 0.337025 -0.595167
319 -0.128992 -0.0586127 -0.550296
382 -0.0241205 1.41673 0.429669
57 -0.60466 0.144169 -1.13821
118 -0.332681 -0.125743 0.272599
83 -0.144947 -0.702096 0.850074
192 -0.0603507 0.417523 0.511637
460 0.707769 0.811108 0.296041
466 0.152331 -0.573844 0.00603851
250 -0.504221 0.0237858 0.378215
261 -1.03529 -0.236659 0.620024
202 -0.00553689 1.49697 -0.0390961
274 0.142219 -0.461177 1.07996
230 -0.791004 -0.941397 0.319568
183 -0.576128 -0.701296 -0.0438019
112 0.658492 -0.250194 0.985665
80 -0.179871 0.355429 0.142368
72 0.580978 0.352079 -0.349056
176 0.296573 0.389805 -0.768177
150 0.652312 -0.323349 0.0300851
56 -0.511614 -0.187896 0.743938
224 -0.0175378 0.278237 1.26499
465 0.375049 -1.10863 0.365707
153 1.52625 0.168288 -0.43731
81 0.258724 0.0713142 -0.586855
297 0.524612 -0.167573 2.07507
17 -0.552684 0.0728311 -0.122378
468 -0.348475 -0.677649 0.615678
443 0.895966 -0.25955 -0.794149
131 0.312724 0.54115 0.0118161
387 0.490104 1.5508 0.156493
64 -0.27031 -0.71216 0.288666
235 0.499437 -0.125588 0.332987
259 -0.76715 -0.679487 0.828151
19 0.0582156 -0.293582 0.45401
187 -1.27321 -0.982474 0.407343
247 -0.645956 0.736199 -0.0170206
364 0.531074 0.358827 -0.524339
404 0.405846 0.0342845 -0.600876
92 0.411997 0.713669 0.335773
71 -0.304341 -0.198043 0.104034
276 0.955314 -0.339158 0.543955
300 -0.507293 0.214219 -1.39416
356 0.595653 0.590399 0.335971
244 -0.31143 -0.274885 0.259405
308 -0.0922153 -0.275596 -0.103351
28 -0.744525 -0.338837 0.133165
469 0.345917 0.951863 0.0201339
269 -0.300926 -0.375232 -0.1352
277 -0.685268 -0.889185 0.831726
293 -0.538759 -0.902708 0.688693
185 0.476064 0.289116 0.678507
213 -0.282676 0.615343 -0.274464
210 -1.68868 0.0914557 -0.305025
424 -0.425246 -0.568385 -1.12264
446 1.33101 0.745516 -0.182312
310 -0.742827 0.821738 -0.147142
78 -0.578745 -0.055604 -0.0844007
70 -0.10525 0.199638 -0.131311
126 -0.36956 -0.147099 0.285744
198 -1.21233 -0.921525 1.28055
375 0.295787 0.348735 0.813941
327 0.22273 -0.965894 -0.456383
262 0.503755 -0.665462 1.18917
307 -1.00916 -0.402657 -0.691738
279 -1.56535 0.546884 -0.828414
246 0.397123 0.105952 0.265132
459 0.291617 0.384354 0.303911
427 0.382158 0.34946 0.186367
339 1.57644 -0.158563 0.987379
123 0.631742 -0.518743 -0.112093
291 -0.38245 0.347317 0.704878
271 0.657143 -0.674235 0.550063
450 0.185418 -1.56998 -0.876507
63 -0.44316 -0.558139 0.236666
267 0.961612 -0.335694 -0.0631136
464 -1.27237 0.402447 -0.349241
390 -0.428225 0.0725585 -0.573745
208 0.28561 -0.0871328 -0.00482024
447 0.403938 -0.603616 -1.63704
77 -0.751668 -1.12042 0.360797
336 -1.22379 0.461371 0.363992
489 -0.0673792 -0.407281 -1.22056
145 0.291001 -0.577153 -0.478136
313 -0.27464 -0.0434863 0.581289
337 0.603942 0.781879 -0.117251
345 -0.0229343 -0.539732 0.763767
281 0.071598 0.884573 0.0813318
303 1.11553 0.877804 0.604601
298 -0.229914 -0.876006 -1.46848
138 -0.57675 0.217627 0.118995
146 0.0675913 0.418184 0.043336
62 -0.496737 0.175407 0.546322
330 0.548449 1.02238 -0.185796
346 -0.201953 -0.974052 0.491532
26 -0.556999 0.629964 -0.925831
282 -0.813661 1.00373 0.315242
74 0.283113 -0.591387 0.0105
156 0.427271 -0.601402 0.279871
436 -1.51003 -0.373367 -0.0396429
84 0.1446 -0.582394 -1.26263
302 -1.62881 -0.231414 0.688601
60 -0.0222994 -0.208196 0.0136474
137 -0.809095 -0.0768994 0.00863014
268 0.482764 0.00154126 -0.671102
488 0.397682 -0.26932 0.353174
501 0.555466 -0.958993 -0.540677
453 -0.480787 -0.600539 1.42224
125 -0.691837 0.451873 -0.294705
317 0.535442 -0.851627 1.37069
341 1.53475 -0.0286085 0.256519
395 0.598142 1.32935 0.16062
59 -0.60984 -1.46989 -0.162209
5 0.618368 0.348689 -0.671416
462 -0.463539 0.158185 -0.913823
494 0.178019 -0.030686 0.133859
430 0.334958 1.40083 -0.167202
94 -0.977608 -0.476728 -0.753426
342 0.677599 -0.139321 -1.17915
91 0.0551029 0.133063 -0.395125
305 0.662814 0.583308 -0.112919
237 -0.220782 0.738847 -0.518823
288 -0.111818 -0.747715 0.190056
12 -0.323376 0.296931 -0.448697
328 0.346339 -0.777025 -0.3708
52 0.633805 0.223555 0.980775
21 -0.498228 -0.968874 -0.45954
396 0.13411 -0.384701 -0.406738
367 -1.08368 0.352007 0.104719
38 -0.0328503 -0.0533511 0.0139504
212 2.29875 -0.235458 0.902788
100 0.579351 0.698112 0.00959059
108 0.730832 -1.17982 -0.841631
472 0.441457 0.650298 -0.229969
30 0.248909 0.625957 0.112658
128 -0.514463 -0.707124 -0.747012
416 0.53478 1.39432 -1.07197
368 -0.25731 0.215833 0.0669837
96 0.899046 -0.00138306 -0.14585
168 -0.211483 -0.65241 -0.418866
16 0.114118 -0.219112 -0.175066
256 0.195981 -0.119081 0.6212
205 -1.73841 0.557768 0.826001
457 -0.700921 0.337853 -1.02667
353 -0.366288 -0.2538 -0.198276
377 0.145318 -0.827635 0.361581
217 -0.705433 1.72656 0.501943
456 0.169032 0.274756 -0.708666
206 -0.188039 -0.347756 -0.813178
355 -0.486185 -0.504485 -0.690779
114 0.383051 -0.344401 0.880164
354 -0.335107 -0.161445 0.497598
362 0.572714 -0.665691 -0.458529
378 0.222573 -0.883071 -0.463386
365 -0.0308706 0.441936 -0.082694
170 1.03518 -0.175112 -0.54466
127 -0.604122 -0.343443 -0.067604
124 0.48359 -0.148013 0.322938
371 -0.715539 0.117236 0.271579
379 0.1012 0.807394 0.804981
211 1.55183 0.345193 -0.0323939
243 1.03411 -0.571845 -0.0668479
35 -0.161313 0.919341 0.276999
11 -0.39677 -0.0727368 0.478771
374 0.0978276 1.066 0.25849
203 0.245837 -0.559774 -1.15828
101 -0.0658578 -0.429784 -0.488841
349 -0.465555 -0.159836 -2.07224
358 1.10892 -0.179545 -1.11466
373 -0.757412 0.221435 0.49377
111 -0.0521054 0.682102 0.190043
236 0.646944 0.59577 -1.38746
181 -0.159541 0.151452 -0.549982
189 0.143634 -0.220449 -1.00807
197 -1.4703 0.0595341 0.753855
402 0.619098 -1.13132 -0.317926
398 -0.351786 -0.629558 -0.330306
406 -0.109022 0.74189 1.55716
110 -0.339 -0.153563 -0.324873
27 0.098679 0.828709 0.244632
359 0.289271 0.0744502 -0.0721051
361 0.301053 -0.136772 0.225307
180 0.17554 -0.102568 -0.221073
497 -0.743387 -0.375142 1.69778
107 -0.0842569 -0.0325747 0.915687
241 -0.776156 -0.969831 1.30184
22 0.161295 -0.710353 0.233478
421 0.349261 1.68747 0.615683
157 -0.431866 -0.355193 -0.345451
405 0.0684291 -1.11465 -0.844007
357 -0.609392 0.454984 0.417447
117 -0.106807 -0.198398 0.106109
33 1.005 -0.499545 0.331114
309 0.635414 -0.398367 0.157477
496 0.240938 -0.419226 -0.282004
104 -0.119031 -0.31067 0.334872
88 -0.657297 -0.442572 -1.38548
32 0.422425 1.1556 -0.147096
48 -0.730306 0.429372 -0.427678
248 0.255029 0.70803 -0.115487
51 0.21805 -0.168726 0.104848
433 -0.565512 0.548354 -2.16253
260 0.901837 0.113256 0.458887
121 1.07929 -0.346558 -0.531568
393 -0.128617 0.291542 0.526201
409 1.44086 0.4627 -1.35987
417 -0.760712 -0.0368726 -0.0913391
369 0.828694 0.629046 -0.0287499
65 -0.399673 0.284204 0.483032
9 0.797265 -0.539472 0.423005
257 0.77996 0.394243 1.74619
481 0.490464 -0.556176 -0.338485
490 0.343949 -0.265482 0.29045
498 0.292579 1.00618 0.561195
386 -0.325397 0.463577 0.30054
486 0.665976 -0.150666 -0.657234
50 0.593857 0.410958 0.661142
58 -0.861677 0.0201368 0.533542
218 0.745451 -0.0226847 0.503231
467 -0.203828 -0.140145 0.276569
411 -0.0578634 0.402676 0.721941
47 0.530111 -0.0815797 -1.42916
219 0.656528 0.0717825 -0.299905
295 -0.920072 -1.36932 -0.410724
195 0.46238 -0.501231 -0.369604
484 -0.49475 -0.91584 0.833249
148 -0.0748573 0.0145036 0.916792
444 0.682277 0.264709 -0.433679
372 -0.839177 0.48896 -0.05721
116 0.425857 -0.706098 0.218092
420 0.15813 -0.498126 0.720008
253 -0.266126 1.37499 1.00793
223 -0.715401 -0.586377 -0.179653
188 -0.147303 -1.02027 -1.48042
263 0.687212 0.690859 -0.509195
389 0.175758 -0.568439 1.00365
54 1.1758 0.52396 0.357007
487 -0.488563 -0.608492 0.0135048
479 -0.0215778 0.149106 -0.205883
119 0.158208 0.295099 0.276652
31 -0.428731 0.333074 -0.401125
407 -0.104927 -0.00978549 -0.272454
423 -0.546703 0.0980315 0.790393
95 0.240672 -0.752184 0.559335
463 1.27241 -0.132615 -0.421324
418 1.46845 0.258114 -0.556735
171 -0.347155 0.862667 -0.485243
414 -0.535879 -0.736527 -0.695216
366 0.76436 -1.13966 0.957744
455 0.326795 -0.160764 -0.562282
318 -0.117764 1.00074 -0.241796
334 0.391502 0.587565 1.51155
166 -0.855242 0.231943 -1.10008
2 0.899925 -0.451509 0.409547
190 -1.01621 0.336476 -0.113007
144 0.212718 -0.0967593 0.397698
432 1.37096 -0.56629 -1.13262
440 -0.812755 1.42106 0.260963
352 0.869017 1.20407 -1.16937
7 -1.43859 -0.642463 0.0435108
500 1.45079 0.346433 -0.887914
449 -0.0460239 -1.4847 -0.03896
113 -0.214636 -0.177292 0.443634
214 0.0798912 0.498554 1.54728
73 0.132274 -0.578243 -0.092386
193 1.03278 0.945968 -0.704185
201 -0.0047823 -0.0428443 1.06354
249 -0.471917 0.333497 -0.918736
41 0.0888832 0.627057 -0.0198357
394 1.18744 -0.515218 -1.62307
474 -0.530732 0.920175 -0.587539
434 -0.543946 -0.0408309 0.332705
458 0.0851589 -0.253949 0.191202
130 -0.737543 -0.383622 -0.453707
29 -0.552487 -0.154573 -0.539299
410 0.0128809 0.479905 -0.0851159
106 1.00145 0.0103605 -0.90593
98 0.171446 0.392854 0.216664
90 -0.546891 -0.211012 1.07344
425 0.856604 -1.34808 0.18695
139 -0.526996 -0.137049 0.223811
147 0.301758 -0.683841 -0.225329
435 -0.113522 -0.989668 0.577878
67 0.0359614 0.55938 -0.961762
227 -0.986089 0.012916 0.141679
380 -1.06135 1.6338 -0.398542