ITEM: TIMESTEP
0
ITEM: NUMBER OF ATOMS
1200
ITEM: BOX BOUNDS pp pp pp
-4.4919104223854296e+00 4.4919104223854296e+00
-4.4919104223854296e+00 4.4919104223854296e+00
-4.4919104223854296e+00 4.4919104223854296e+00
ITEM: ATOMS id f_aveg_velocity_dist[1] f_aveg_velocity_dist[2] f_aveg_velocity_dist[3]
496 0.0648527 -0.190838 -0.0970784
488 -0.57861 -0.066941 -0.0451945
480 0.262002 -0.157103 -0.0565235
472 0.850292 0.0577582 0.238621
672 0.470599 -0.673315 -0.0900214
456 -0.550571 0.8282 -0.740408
712 0.657189 1.21847 0.406712
8 -0.146271 0.380276 0.883662
440 -0.294804 -0.230618 -1.32706
432 0.261007 -0.876972 -0.374732
424 0.378959 0.153419 -0.905479
416 1.09056 -0.154418 0.971897
584 0.870168 0.431142 0.185647
400 0.0799785 -0.331291 -1.58277
48 0.229841 1.02387 0.472167
24 -0.719774 -0.0894298 -0.608503
40 -0.174414 -0.219515 -0.470129
32 0.483136 0.676442 -0.568538
673 0.929957 2.1078 -1.38027
33 0.167787 0.366759 -0.1575
41 0.481089 -0.502349 0.526306
17 -0.377658 -0.407126 -0.429698
49 -0.32049 0.525883 0.152868
401 -0.256283 -0.229179 -0.376682
409 -0.685311 0.800201 -0.955119
417 -0.879436 -0.661919 0.263001
425 0.78656 -0.654219 0.316283
433 0.141011 0.612143 -0.960711
441 1.28989 -0.598376 0.830488
449 -0.0906682 0.80948 -0.424571
457 0.631861 -0.751293 -0.823364
465 -0.820117 0.208855 -0.123983
473 0.377442 -1.52189 -0.862774
489 0.0179762 -0.155401 0.502377
497 0.596817 -0.355825 0.499807
1 0.253871 0.766253 -0.582572
498 -0.695901 0.602895 -0.530297
490 -0.510996 1.34813 -1.01181
34 0.191529 -0.0521365 0.517849
18 0.082819 0.297452 0.819622
42 1.16549 -0.436306 -0.284528
50 0.227182 -0.117216 0.471834
402 -0.761848 0.232422 0.0419374
418 -1.06627 0.117185 0.426238
426 0.133752 0.505419 0.0611464
10 0.149552 -0.0235213 1.30161
442 0.429708 1.30906 0.158108
458 0.590139 0.199086 -1.31565
466 -0.131251 -0.178798 -1.52565
474 0.34628 -0.214879 -0.514408
482 0.141076 -0.917309 -0.516003
499 -0.577446 -0.689415 0.302299
131 -1.01244 -0.59848 -0.176841
491 -0.0234455 0.486917 -0.53544
27 -0.0993097 0.0404231 0.346658
19 -0.821687 -0.404739 0.888856
35 -0.562233 -0.561063 0.220737
43 -0.145435 -0.254495 -0.519052
51 -0.546734 0.208008 0.50558
403 -0.668986 -0.416224 -0.277941
411 0.234224 -0.749919 -0.522642
419 -0.536939 0.961719 0.550711
11 0.731234 -0.898316 0.600774
435 -0.543551 1.07499 -1.03097
451 -0.482872 -0.125403 0.174428
459 -0.737859 0.95313 -0.26412
467 -0.0853037 1.31744 0.950456
475 0.786614 -0.114812 0.224501
500 -0.971648 0.408464 0.113966
692 -0.492042 -0.98644 -0.898475
556 -0.0615612 -0.732663 -0.819718
20 -0.632446 0.970557 0.0274497
36 0.609531 0.022766 0.502861
44 0.616692 -1.09365 0.120288
52 0.0585528 0.885395 -0.140722
404 -1.12692 -0.59395 0.745916
412 -0.171613 0.266852 -0.539061
12 -0.471322 0.03962 -0.590696
436 -0.0557426 -0.969958 -0.408645
452 0.279446 -1.47047 0.0541107
460 -0.445329 -0.64078 0.342204
468 -0.0426955 0.491803 0.773173
476 1.01885 -0.105157 -0.405556
4 -0.266714 -0.183439 0.193937
492 0.169603 -0.726588 0.574925
501 -0.866898 0.0210204 -0.802076
493 0.558647 0.238446 0.730319
29 -0.484072 -0.240423 -0.47772
37 0.35059 0.0890744 -0.122152
45 -0.165799 0.414522 -0.334117
53 -0.565408 -0.449462 0.0733144
405 0.549325 -1.07705 0.591233
413 -0.0647827 0.477029 -0.500135
13 0.0648762 -0.354088 0.250124
421 -0.348489 0.167639 -0.0435818
429 0.322465 1.69103 0.0376728
437 0.813536 1.52881 -0.733325
445 0.000959842 -0.135035 -0.0553161
453 0.335633 -0.261398 -0.37087
461 -2.10762 -0.152107 0.181738
469 0.456316 0.39359 0.666465
477 0.157447 -0.253284 1.04309
485 0.356503 0.172567 -0.493819
494 -0.845695 -1.81639 -0.439309
486 -0.598717 -0.942609 0.94341
206 -0.0978665 -0.337549 -0.389096
870 0.104348 -0.547906 -0.991382
478 -0.881561 -1.21106 0.28866
566 0.0258492 0.172883 -0.862183
606 0.723789 0.48548 -0.4453
54 0.380452 1.01003 0.0803585
22 -0.920449 0.107062 0.744291
30 -0.933189 0.457801 -0.388828
46 -0.157089 0.169215 0.433527
398 0.313118 -0.814244 -0.139798
406 0.221661 -0.00606072 -0.143145
14 -0.515001 -0.0971884 0.212567
414 1.32884 0.284818 0.305492
430 -0.449803 -0.727204 0.54691
438 0.924975 1.72807 0.643535
446 0.274691 -0.476414 0.550956
454 0.50848 -0.27506 0.230724
462 0.0228805 0.262282 0.658681
6 -0.758076 -0.759914 0.006573
470 -0.798839 0.799314 0.375901
503 -1.44223 1.12599 0.519014
495 -0.00829291 0.442048 0.897287
199 0.387736 -0.280781 -0.0889346
143 -0.468167 0.550776 0.575102
559 -0.409593 0.0540162 -0.558737
23 -0.452891 -0.741265 0.491489
31 -0.0151285 -0.257582 0.344609
39 0.99374 -0.00506367 0.910899
47 0.369158 -1.39226 -0.835574
399 -0.00966002 0.282127 0.735625
15 -0.348372 1.17067 -0.500617
407 -0.860182 0.428001 0.156587
415 0.0383344 -1.2543 -0.114487
423 0.0717549 0.202881 -1.01085
431 -0.135267 0.866926 0.0830876
439 1.63926 0.690591 -1.53027
447 0.752318 0.352025 0.196231
455 -0.409566 0.0367118 -0.984513
463 0.404356 0.596009 -0.0195066
471 0.687569 0.46974 -0.14564
479 0.141738 -1.03124 -1.6875
487 -0.512835 0.107115 -1.37099
617 -1.04718 -0.866597 0.136584
609 0.0349622 -0.773345 -0.103414
601 -0.10326 0.500268 0.876303
57 1.04216 -0.0998925 0.416087
593 0.108488 -0.542116 0.246176
585 0.947908 0.319782 -0.539808
577 0.362311 -0.0528273 0.636632
569 0.590351 1.07033 1.49162
561 0.773921 0.416997 -0.280008
553 -0.177038 -0.84225 -0.319886
545 1.17901 0.61331 -0.270766
65 -0.0972022 -0.20247 0.535165
537 0.580014 -0.319663 -0.250265
529 0.225449 -0.699821 0.228338
521 -0.476934 0.792892 -1.3464
25 0.00239258 -0.184197 -0.388093
505 0.0661694 1.2437 0.769532
105 -0.54765 0.369466 -0.883381
97 -0.168395 -0.36765 -0.677635
81 -0.320534 0.809409 -0.11566
89 -0.236846 0.085644 -0.143537
256 0.281366 0.329863 0.194851
408 -0.232067 -1.64507 0.6462
80 -0.404702 0.83148 -0.165076
88 0.296834 -0.595438 -0.627525
96 -0.448117 -0.964063 -0.28435
104 -0.130732 -0.325969 0.231131
72 0.667182 0.650978 -0.215757
512 0.363508 -0.406741 0.431113
520 0.839977 -0.899165 -1.64118
528 -0.403414 -0.452955 1.35118
536 -0.277049 -0.504857 0.861417
544 -1.62093 0.853489 -0.221178
552 -0.226567 0.972081 -0.628873
64 0.165492 -0.141581 0.140643
568 0.81577 1.03881 -0.332923
576 -1.4981 -0.0773072 -0.374803
592 0.839946 1.14856 -0.902442
600 1.08789 0.180419 0.952425
608 -0.640293 0.571958 -0.310397
56 -0.464583 0.0695999 -0.356397
616 0.285968 -0.748622 -0.757935
2 -0.290364 0.441757 -0.374803
90 -0.603039 0.742668 0.759977
74 0.16542 0.0268915 0.612841
106 -0.710143 -0.45015 -0.44696
514 0.740526 1.0089 -0.106495
522 0.133231 0.832098 0.659806
530 -1.18713 -0.846683 1.09576
538 -1.38233 -0.264008 0.0487234
66 -0.179768 0.493421 -0.240649
546 0.187691 0.520832 -0.198766
554 -0.793824 -0.449402 0.188123
562 0.168595 0.450255 -0.883537
570 0.0317702 -0.148289 0.409184
578 -0.117545 1.16601 -1.39873
586 1.65644 -0.721484 -0.697077
594 0.585216 -0.74235 1.16458
58 0.331232 0.504664 -0.0218144
602 0.307193 -0.779506 -1.39352
610 -0.338468 -0.614786 -0.254483
618 -1.11468 0.494273 -0.559169
26 1.14301 -0.30866 0.0967984
251 -0.834424 0.22785 -0.73164
83 0.290081 0.105375 -0.130485
75 -0.430242 0.0309311 1.27796
91 0.765076 -0.830354 -0.565594
99 0.0634371 -0.776621 0.328091
107 -0.544882 -0.975038 -0.00865178
507 -0.150355 -1.16149 -0.477798
515 0.197316 -0.984673 -1.1796
523 -0.16482 -0.228009 -0.542445
531 -1.55054 0.590313 0.264092
67 0.425169 -0.348068 0.39525
539 -0.110505 -0.677288 -0.0175945
547 -0.473136 -0.580583 0.601861
555 1.25262 0.487169 -0.146094
563 -0.524797 0.115134 0.0629997
571 0.313563 -1.05836 0.360896
587 -0.165092 -0.192873 0.124624
59 0.661922 -0.000815929 -0.64328
595 0.311383 0.187846 0.683923
603 -0.105296 0.792896 -1.29276
611 0.914237 0.316319 0.338346
619 -0.0278245 1.07646 0.543817
427 -0.440425 0.012473 0.421747
3 -0.0938199 -0.0508003 -0.420145
732 0.872825 -0.273771 -0.0276416
788 -0.191131 -0.0179252 -0.690695
76 -0.42767 0.0845568 -0.182966
84 -0.263437 0.395951 0.287663
92 -0.998448 -0.354972 -0.0934613
100 -0.914041 -0.421462 -0.468177
108 0.133581 0.210846 0.311561
508 0.929616 0.268199 -0.841302
516 0.768969 0.728188 0.657649
68 -1.19138 0.048735 0.232911
532 -0.260885 0.675944 0.353892
540 1.12357 0.324861 0.576363
548 -0.164878 1.6161 0.444027
564 1.37235 0.503754 1.12919
572 1.164 0.117642 -1.48107
580 -0.663135 -1.19193 -0.349836
588 0.674905 -0.300584 0.602833
596 -0.618257 0.642843 -1.30439
604 0.10249 -0.177189 0.0057727
612 0.746279 1.03821 0.95402
420 0.36068 -0.279081 0.854831
428 -0.784273 0.342843 -0.329253
484 0.993508 0.154492 -0.39764
269 -0.040041 0.239863 -0.527474
85 -0.712184 -1.12158 0.123759
93 0.0660065 0.309597 0.0803662
109 -0.00696382 1.03713 -0.669748
509 -0.295445 -0.889607 -0.584462
517 -0.204281 -0.170954 -0.642336
525 0.311669 0.481078 -1.09485
533 -0.138967 -0.308004 -0.692153
541 0.82419 -0.0162273 -0.262987
549 -0.0268706 -0.251849 -0.774708
557 0.444853 0.0649058 0.998411
565 0.0781483 0.0473029 0.153587
573 0.849796 0.163696 0.201506
61 1.05727 0.216559 -0.390075
581 -0.100197 0.263473 -0.344329
589 -0.0145954 -0.376673 -0.263916
597 -0.13109 -0.449161 -0.1122
605 -1.48579 0.0893002 -0.636764
613 -0.585291 -1.40861 -0.0852912
5 -0.0480646 0.108085 0.497215
150 -0.217644 0.376414 0.70738
78 0.973924 -0.181335 -0.772697
86 0.745337 1.05958 -0.243234
94 -0.502332 0.664342 -0.511455
102 -0.631679 -0.346908 -0.719675
110 0.4548 0.087959 0.39237
510 0.183911 0.160084 0.710483
518 -0.708029 -0.602309 0.0280947
526 0.226895 0.428502 0.0680985
534 -1.31187 0.504243 -0.582383
542 0.662915 -1.52525 -0.608549
62 0.280274 -0.136477 0.933238
574 0.889853 -0.271406 0.47644
582 -0.20794 0.0857592 0.745672
598 -1.19104 -0.4215 -0.272032
614 0.163386 -0.825833 1.62099
422 0.427455 -0.221615 -0.511862
743 -0.173602 -0.512604 1.06007
759 -0.150647 1.29571 -0.0995109
79 0.419324 -0.563759 -0.918484
87 -0.133743 -0.149837 1.02226
95 -0.485907 0.446051 0.124721
103 0.52937 -0.874473 -0.00880057
111 0.729472 0.701536 -0.0454814
71 -0.142449 0.868819 -0.200261
511 1.39388 -1.71479 0.365943
519 -0.603769 -0.612094 0.205578
527 1.22491 -0.0873202 0.129341
543 -0.799377 0.170592 -0.153468
551 -0.441624 0.743166 -0.692986
63 -0.143622 -0.637569 -0.354388
575 -0.31862 -0.202923 0.859647
583 -0.362859 -0.0983438 0.216529
591 0.434814 -0.95743 -0.054917
599 -0.130644 0.643943 2.06866
607 1.06698 0.0126109 -0.131497
615 -0.410834 -0.503288 -0.233602
55 -0.712914 0.157634 0.485443
722 -0.39892 0.305852 -0.191705
714 0.890435 -0.945408 -0.323699
114 0.845248 0.214738 0.297613
706 0.631045 0.720188 -0.313336
698 0.322795 0.821623 1.30242
690 0.159245 -0.186397 -0.967167
682 -0.32379 -0.113449 0.0735321
674 -0.0732089 1.2434 -0.246825
666 1.05686 -1.04457 -0.404384
658 -0.603728 -0.0859209 1.6539
122 -0.101851 0.6538 -0.189593
650 0.570975 0.26469 -0.972283
642 0.22996 0.931877 -0.0368776
634 -1.08351 -0.47997 -1.11265
626 -1.28875 0.542552 -0.761627
146 0.230501 -0.483336 0.805462
138 0.242438 0.155733 0.0776166
1098 -0.137858 0.583788 -0.554403
194 0.749153 -0.571127 -0.0965882
770 -0.534531 0.668296 -0.412773
192 -0.647871 -0.0210155 -0.113856
136 0.276497 -0.444966 -0.548409
144 -1.19228 0.0364679 0.314211
128 0.368258 -0.546177 0.218074
624 -1.05423 -0.0490702 -1.1972
640 -0.310914 0.506961 -0.0281437
648 -0.276961 -0.35942 -0.215711
664 0.0939273 -0.317889 -0.760376
120 -0.6695 0.0436889 -0.641472
680 0.234331 0.730351 0.293498
688 0.981974 -0.363808 -0.130662
696 -0.775487 0.33508 0.0181624
704 -0.0329022 -0.29911 0.0987945
112 0.0972864 -0.416552 0.00807887
1025 0.428106 0.463752 0.237049
193 0.155271 0.304379 0.207506
769 -0.318134 -0.377895 0.6701
137 -0.421611 -0.344762 0.0692716
129 0.158638 -0.0605634 -0.275945
145 0.150572 -0.127984 -0.169906
625 -0.31286 0.403064 -0.255909
641 -0.0238954 0.604296 -0.537713
649 0.128069 -0.394856 0.182217
657 0.821663 0.161586 -0.675001
665 -0.469071 -1.36185 0.147748
121 -0.0775651 -0.502378 0.0528382
681 0.00495752 0.743907 0.369053
689 -0.398781 -0.0838815 -0.145676
705 0.49785 0.224044 -0.446728
713 -0.114418 -0.49639 0.0995296
721 0.266068 -0.643593 -0.890663
113 -0.0605522 0.635129 -0.469228
9 -0.345238 -0.299014 0.949951
139 -0.0414307 -0.466202 0.229654
147 -0.653466 0.0539056 -0.279235
627 0.729948 -0.531485 -0.767937
635 -0.218878 -0.439518 0.999466
643 -0.00111845 0.0336164 -0.360308
651 -0.272357 0.224728 -1.20287
123 0.868902 -0.666108 -0.510587
659 1.0021 -0.842404 0.0721849
667 -1.55154 0.934438 -0.378624
675 -1.25588 0.302966 0.871914
683 -0.372984 -0.168119 0.209397
691 -0.520673 -0.108144 0.629022
699 0.71503 -0.576772 0.618935
707 -0.510417 0.964282 0.467251
715 0.211905 0.269927 0.808301
723 -0.0705266 0.64027 0.826341
483 1.20577 -0.40726 0.229668
172 -1.43807 -0.303086 -0.0470156
132 -0.316915 -1.06378 -0.401388
140 -0.115498 -0.667681 0.311689
148 0.429312 -0.0563324 0.049005
620 0.468555 0.331347 -1.27953
628 -2.20783 0.735031 -1.69172
636 0.913025 0.297089 0.326918
644 0.813343 -1.41889 0.166155
124 -0.873179 -0.0720355 -0.318722
652 -1.29146 -0.156212 -0.07174
660 0.167015 -0.14639 -0.425691
668 -1.10649 -0.653793 0.376194
684 -0.551363 -0.051298 -0.532993
116 -0.302295 -0.63371 -0.718222
708 -0.908419 -0.610994 0.0371098
716 0.165097 0.893348 0.795584
724 0.704105 -0.141417 -0.189703
28 0.460256 0.103664 0.252347
444 0.114837 0.835156 0.222468
1021 -0.578493 -1.46985 -0.750171
133 0.324033 -0.303456 0.186917
621 -0.556658 -2.05657 1.16379
629 -0.162899 -0.414592 0.539702
637 -0.740496 -0.447537 -0.886363
125 -0.558983 0.0611041 0.0182038
645 -0.638763 -0.214081 0.216038
653 -0.459837 0.946205 -0.328497
661 0.300172 -0.648257 0.674719
669 0.39674 -1.56954 0.432806
677 1.16394 0.55737 0.0630869
685 0.512876 0.0672993 0.652156
693 0.929945 -0.204692 0.911328
117 -0.07361 -0.166916 -0.0677989
701 -1.25882 1.16044 -0.69917
717 0.288989 0.902244 -0.662414
21 -0.519294 0.349029 -0.385579
397 0.0531881 -0.171138 0.112148
182 0.198738 -0.269878 0.0064885
734 -0.0138017 -0.767158 0.123843
134 1.1895 0.0246861 -1.09878
142 -0.125151 0.0930138 0.323751
622 -0.74571 0.849621 -0.215224
630 -0.241778 0.464127 0.470052
126 0.00408395 0.949341 -0.262273
638 0.576026 0.309416 0.609729
654 -0.932521 0.0846252 -0.685195
662 0.50345 -0.246497 0.139573
670 -0.632906 -0.119929 0.226157
678 0.639653 0.840234 0.116001
686 0.669805 0.122407 -0.210412
694 0.114461 -0.167279 0.886241
702 0.67631 2.08306 1.45645
710 -0.0349716 -0.749098 0.0142413
718 0.0827187 -0.928964 2.03384
1031 -0.52096 0.149991 -0.293251
767 1.39733 0.509508 -0.113479
135 0.437487 -0.23783 0.537953
623 -0.531407 0.380087 -1.20392
127 -0.58541 0.185346 -0.0131263
631 -0.447165 -0.773553 1.49977
639 -0.568599 -1.23817 0.861227
647 0.772338 1.36827 -0.661946
655 0.163112 -0.031122 0.309077
663 -0.14904 0.0882736 -0.297539
671 -0.174998 0.731385 0.298501
679 0.171961 0.377844 0.916579
119 -0.00735879 -0.45751 -0.376344
687 0.719151 -0.486986 -0.731952
711 -0.0391419 0.0470554 -0.0523727
719 -0.471209 0.617654 -0.936941
7 -0.126616 0.337001 -0.440063
819 -1.00228 -0.629651 0.289572
811 0.150861 1.00962 0.643628
803 0.319694 1.00748 0.581621
795 -1.20718 -0.324576 -0.48031
787 -0.598971 0.234848 -1.38878
779 0.332245 1.2638 0.308349
155 -0.441778 0.642416 -0.463829
771 0.305938 -0.700676 -0.174664
763 -0.276127 -0.114185 -0.322713
755 0.286733 -0.219384 -0.0491848
747 0.70598 0.229001 0.777931
739 0.155659 -0.0567724 -0.464026
731 0.671088 0.54551 -0.977872
195 -0.0818412 -0.83971 0.6782
163 0.0200479 -0.0451908 -0.0477602
187 -0.405863 0.627844 0.596879
179 0.243078 -0.369796 -0.0653371
171 -0.566416 0.0188 -0.159276
115 -0.0641574 0.59525 -0.652817
1112 -0.0609929 -0.978235 0.453498
168 -0.512045 -0.547859 0.00867396
184 0.787579 0.524768 0.310355
728 0.738544 1.92874 -1.29264
736 0.163062 -0.154676 0.140963
744 0.335066 0.392652 0.0891689
160 0.330439 0.242775 0.0364141
752 0.494085 0.557007 -0.399716
768 -0.378138 0.615204 -0.763628
776 0.24684 0.348755 0.817823
784 -0.101512 -1.08602 0.0787391
792 0.00721627 -0.877436 -0.799416
800 -0.253954 1.09977 0.635239
152 -0.763744 0.158615 -0.333869
808 0.859844 0.25015 0.277597
816 -0.916521 0.424478 -1.64177
632 -0.494992 -0.402599 0.511731
720 -0.0740017 0.258999 0.105599
560 -1.00887 0.326383 -0.138187
513 -0.455233 -0.306969 0.253347
169 0.625147 -0.970619 0.290263
177 -0.285421 -0.576779 0.179374
185 0.214142 -0.158353 0.526416
729 -1.38397 0.508552 -0.139181
737 -0.392621 0.771044 -0.388573
161 0.854312 0.315006 0.0278658
745 -1.41256 -0.381387 0.828107
753 -0.00865726 0.46746 0.209412
761 0.294485 0.795232 0.608703
777 -1.41459 0.350123 0.734772
785 -0.0824681 1.42584 0.771414
793 -0.00713037 -0.0817497 0.251807
153 0.639695 0.325423 0.903245
801 0.0335746 -0.33963 1.1812
809 -0.680024 -1.18309 -0.310527
817 1.88292 0.482454 0.204773
633 -1.70263 0.848455 1.52799
697 -0.280331 0.190305 1.59489
73 -0.425795 -0.378943 0.980998
481 0.0480175 -0.589773 -0.160329
130 -1.33073 0.533748 -0.837354
1170 -0.888851 0.821157 0.00574106
170 -0.335104 0.289949 -0.825655
178 -0.15241 -0.400267 0.336265
186 -0.273197 -0.391204 -0.25451
730 0.192195 -0.87005 0.172861
162 0.287675 0.924111 0.529492
738 0.121503 -0.0164183 0.11938
746 0.780645 0.612493 0.418787
754 0.338332 1.21532 0.588658
762 -0.414949 -0.421462 0.180519
778 -0.484489 -0.115011 -0.450956
786 -0.617372 -0.131157 -0.4756
154 0.0942816 -0.311987 0.162378
794 0.227159 0.243704 0.505941
802 1.04502 0.102288 -0.810753
810 0.540221 0.409877 -0.111036
818 0.660289 1.81659 -0.708254
82 -1.10077 -0.289608 0.182059
1196 -0.0618266 -0.568486 0.0362135
180 -0.598696 -0.141671 -0.981511
188 0.546354 -0.180289 0.616229
164 1.87135 -0.0985926 0.727504
196 -0.321253 0.492979 0.285951
740 -0.293999 0.932136 0.262612
748 0.111894 -0.535414 1.29763
756 -0.545258 -0.689587 -0.713995
764 0.620794 0.145211 -0.0848549
772 0.442685 0.248121 2.10268
156 0.964308 -0.702436 -0.453076
780 0.904698 0.187121 0.865273
796 -0.738878 -0.906488 0.331223
804 0.806512 0.173075 1.50281
812 0.503256 -0.438908 -0.00682013
820 0.635171 -0.342394 1.48741
524 1.11774 -0.0789713 0.932102
173 0.709162 -0.285121 -0.3384
181 0.592504 0.49805 -0.239482
165 0.264383 0.161131 0.340256
189 0.0347118 0.435089 -0.574986
725 -0.0541416 0.0849309 -0.749603
733 -0.0937561 -0.643505 1.65087
741 -0.820052 -1.2695 1.49241
749 0.230096 0.361497 -0.237107
757 -0.566287 -0.353161 0.658627
765 0.505729 -0.975956 -0.244963
157 0.579769 -0.838789 -0.617913
773 -1.96197 1.11177 -0.266767
781 1.17766 -0.750529 0.740911
789 0.714996 -1.19111 0.610836
797 0.643963 -0.674669 -0.810572
805 0.671159 -0.81537 -0.193056
813 -1.10621 -0.28808 0.115367
821 -0.662236 0.835029 0.698802
149 0.950923 0.465997 -0.168336
709 0.430828 -1.12183 -0.599755
77 0.398448 0.490266 0.64096
1182 -0.0329704 -0.640331 -0.224605
174 -0.0807712 -0.302647 -0.616895
166 -0.101333 -0.146704 -1.29327
190 0.361815 0.458445 -0.186379
726 0.512686 0.328568 -0.539211
750 -0.303162 0.522599 0.542525
758 1.34469 -0.168757 -0.902965
766 -1.08536 -0.69039 -0.303742
774 0.675737 -0.302357 -0.0845525
790 0.29566 1.43409 -1.32266
798 0.0998352 -1.18493 0.28834
806 0.332444 0.220344 0.0233453
814 -0.328335 -0.549143 0.805682
118 -0.159604 0.0449334 0.152585
70 0.122514 -0.716553 -1.14258
558 0.746797 -0.108137 1.42397
590 -0.790168 -0.826436 -0.719639
1183 -0.271669 0.217379 1.18339
167 -0.663352 0.191776 -0.45605
175 -1.18332 0.122064 -0.689293
183 -0.508597 -0.307354 0.209739
191 0.629591 0.144085 0.0108549
727 0.107668 1.03052 1.04001
735 -0.467745 0.374816 0.279873
751 0.200843 -0.692723 -0.879156
159 0.330125 -0.113388 0.00927756
775 -0.278611 0.0978905 -0.877271
783 -0.462202 -1.19788 0.0345699
791 0.27278 -0.749173 0.291995
799 0.989294 0.015749 -0.792945
807 -0.222471 -0.190275 -0.633743
151 0.543584 0.180618 0.234824
815 0.35639 0.132982 0.769834
535 -0.767756 -0.117164 0.235235
916 0.774909 -0.424532 -1.00324
908 -0.548421 0.110143 -0.00056877
900 0.0601699 1.77453 -0.346541
892 0.00846658 -0.105007 0.69969
884 -0.0761767 -0.254353 0.692747
876 0.289501 -0.965182 0.573803
868 0.889174 -0.213585 -0.966302
204 -0.00779213 0.118977 1.35205
860 -0.322894 -0.592953 -0.171463
852 -0.0172864 0.0613801 0.0500099
844 -0.962664 0.584198 -1.12986
836 0.147435 -0.722668 0.0783456
828 1.22006 -0.43862 0.73188
244 -0.284129 -1.52199 -0.322893
236 1.21171 -0.0890829 -0.0488325
212 -0.380778 -0.684822 -0.930836
1068 0.435481 -0.296291 -0.116206
220 0.487447 -0.0338662 -0.423846
464 -0.0414204 0.113084 0.0325099
216 -0.0723983 -0.384973 -0.0844362
224 -1.52915 -0.859886 0.859657
232 0.221162 0.579904 0.206586
240 -0.483457 -0.842349 -0.818033
248 -0.603416 0.297933 -0.731077
824 -0.460726 0.0711307 -0.206752
832 -0.630458 -0.451958 -0.326356
840 -0.283275 -1.50088 0.118893
208 0.235627 0.0435714 -0.603212
848 0.122423 -0.21642 -0.133295
856 0.709261 0.114392 -0.100529
864 0.46131 -0.168491 -0.307984
872 -0.923732 -0.0960606 -0.147782
880 -0.766401 0.751998 -1.54634
888 1.09936 0.136664 -0.800367
896 -1.45622 -0.422294 -0.0278906
200 0.107655 0.348714 -0.0682956
904 -1.0793 0.678477 -0.0554024
912 -0.174291 -0.31362 0.525751
448 0.373297 0.46157 -0.559218
504 -0.102557 0.756101 -0.422557
16 0.0793471 -0.130585 -0.643389
217 0.512284 -0.45818 0.712151
225 -0.604942 -0.489663 0.155159
233 -0.256677 -0.110834 -0.381927
241 -0.853387 0.713888 0.113086
249 0.216971 0.4644 -0.969666
825 0.521503 -0.210114 -1.26082
833 0.242102 -0.396567 -0.104359
209 -0.0545309 -0.82348 0.302779
841 0.713028 -0.0589439 -0.678887
849 0.871451 -0.575849 -1.67145
857 -0.0548868 -0.282942 0.997257
865 -0.58745 -0.631682 -0.758153
873 1.14314 0.306326 -0.296518
881 1.02074 -0.630166 1.07675
889 0.000962558 0.568495 0.820772
201 0.215393 0.501173 -0.330919
897 -0.155462 -2.17258 -0.533569
905 -0.140877 0.118217 0.102704
913 0.431151 -1.29907 1.39541
1034 -0.33233 -1.0042 -0.258267
986 0.0934131 -1.89923 0.28094
218 0.940399 -0.0183565 -0.168536
226 0.0813752 0.143155 -0.700434
234 -0.164373 0.512525 0.119006
242 -0.636205 -0.347134 0.377491
826 -0.234742 0.270091 1.26852
210 0.564323 0.646407 -0.469411
834 -0.198893 0.473186 0.255861
842 -0.0637225 -0.188686 -0.808655
850 -0.403528 0.241251 0.916185
858 0.353207 1.13377 0.123234
866 1.79766 -0.622754 0.363664
874 0.642589 -0.272493 0.34163
882 0.075924 0.530171 0.161977
202 -0.529299 0.715286 0.245927
890 0.337943 -0.131494 0.882487
898 -0.297426 0.00992648 0.540415
906 -0.30349 -0.0928812 -0.0759754
914 -0.659458 0.295063 -0.936188
410 -0.746112 0.765295 0.0148841
434 -0.0316631 -0.455563 -1.61328
450 1.4081 0.77074 0.0527427
219 -0.59752 -0.11703 -0.203726
227 -0.255738 -0.314878 -0.453306
235 -0.1892 -0.123669 -0.887876
243 -0.0277307 -0.291051 0.552914
827 1.19979 0.907909 -0.991517
835 -0.81002 0.416772 -0.200201
843 -0.884264 -0.156579 -1.36451
851 -0.135613 0.801012 0.875403
859 0.493127 -1.11732 -0.996297
867 0.190773 0.4391 0.849449
875 0.593768 -0.11279 0.851365
203 1.19728 -0.100414 -0.121419
883 -1.29284 0.523524 -0.211275
891 -0.117593 -0.0362642 -0.177989
907 -1.02261 0.354151 -1.46117
915 0.590122 -0.343274 1.09878
443 -0.317765 0.038023 0.965235
341 -0.736485 -1.10519 -0.0522916
221 -1.13662 0.127705 -0.912937
229 0.806892 -0.23991 -0.0937428
213 -0.324987 -0.470679 0.197437
237 0.67673 -0.38846 -0.209379
245 0.190841 0.0332019 -0.587228
829 -0.404888 -0.243807 0.690363
837 0.30866 0.694888 0.177999
845 0.829127 -1.18061 0.238722
853 0.812642 0.28566 0.502545
861 -0.25123 -0.205112 -0.0597033
205 0.433372 0.799384 0.25402
869 0.143718 0.563996 0.798043
877 1.27961 0.487804 0.240556
885 0.118728 -0.260959 -0.398128
893 1.18581 0.0672326 -1.22429
901 0.119756 0.0229593 -1.15281
909 -0.0410915 -0.303837 -0.154881
917 0.617457 -0.797155 0.772711
197 -0.280886 -0.0200901 0.592979
502 -0.347735 0.208029 -0.470916
222 -0.0511142 -0.149328 -0.548841
214 -0.825863 -0.846208 0.0863187
230 0.581542 0.494196 0.70907
238 0.443727 0.785848 -0.21819
246 0.0236948 0.351884 0.526261
822 0.114379 -0.154126 0.878473
830 -0.393882 1.43053 -0.643013
838 0.436236 0.490757 0.37116
846 -0.934206 0.955151 -0.0489637
862 -0.277841 -0.423017 2.23773
878 -0.425727 -0.12741 0.749658
894 0.336259 0.112186 -0.888434
902 -1.00474 0.275303 -0.0391511
910 0.278768 -0.275046 -0.878658
198 -0.125537 0.70171 -0.23074
918 1.41688 -0.42459 0.624194
38 0.150969 0.380129 0.560082
1023 1.03307 -0.895459 -0.148242
311 -0.946546 -0.526266 -0.170867
1007 -0.53171 0.688014 -0.46559
215 -0.127729 0.37203 -0.44619
223 0.307259 0.246828 -0.21925
231 0.245504 0.277742 -0.785728
239 0.249514 -0.787576 0.542758
247 0.0874324 -0.85763 -0.20079
823 -0.578603 -0.343666 1.0861
831 0.226919 -0.181104 -0.436785
839 -0.502134 -0.542631 1.14526
847 0.805459 -0.62335 0.542503
207 -0.199525 -1.00279 0.000684747
855 0.615474 0.122248 -0.681411
863 -0.403554 0.000173109 0.825705
871 1.01314 -0.0477717 0.309908
879 -0.132769 -0.782843 0.762139
887 -0.430679 -0.653267 0.345955
895 1.67062 0.0965373 -0.299067
903 0.950899 0.0951277 -0.112288
911 1.17027 0.250105 0.35059
1005 0.414708 -1.56211 -0.175037
997 -1.16947 -0.517089 -0.397444
365 -0.286987 0.409213 0.035044
253 -0.24946 -0.0254624 -0.0808051
981 0.193373 0.0782194 0.584529
973 -0.515474 -0.907482 0.085576
965 1.2456 1.20423 2.04351
957 0.000701623 0.776206 0.580733
949 -0.741749 0.305988 0.907696
941 0.1734 0.554013 -0.605017
933 0.429015 -0.249939 -0.709099
261 -0.284429 0.0644096 -0.0416066
1173 -1.46407 -0.288089 0.530161
301 0.958623 0.236738 -0.641253
293 -0.280136 0.492668 0.408479
285 -0.177503 -0.151741 -0.393491
277 0.353189 0.693315 -0.283408
101 -0.606046 0.508585 0.21363
69 -0.693085 0.869049 -0.339382
272 -0.0833666 0.800094 -1.18024
280 -0.674392 -0.0210182 0.330841
288 0.0109518 -0.194822 -1.14454
296 0.101169 -0.558794 0.164415
264 -0.493903 0.0255509 0.330266
304 -0.1534 0.0179981 -0.909723
920 0.964399 -0.186345 0.893984
928 1.97797 -0.187592 1.02055
936 -0.29277 0.65538 1.27631
944 -0.27671 0.458216 0.394147
952 -0.682889 0.585569 0.828452
960 -1.6219 0.649742 1.40409
968 1.78577 -0.486594 -0.733581
976 0.735342 -0.236026 0.129409
984 0.467214 0.976584 0.662846
992 0.223347 -0.121982 -0.636677
1000 0.328292 0.119868 -0.247294
1008 -1.12628 0.226234 -0.0618914
273 0.026033 1.22137 0.12806
281 -0.647808 -0.0940168 -0.590311
289 -0.137598 -0.352482 0.152409
265 0.623299 0.230575 -0.458722
297 -0.00528522 1.16616 -0.226068
921 0.174198 0.100865 -0.236727
929 0.965722 0.513397 0.7973
937 -0.423032 0.452025 -0.702302
945 -0.050315 1.24026 -1
961 -0.434094 0.306911 1.50454
257 0.369705 -0.376437 -0.508344
969 -0.498717 0.0123447 -1.99909
977 1.22144 0.0347016 0.481389
985 -1.29245 0.054048 0.407015
993 0.456473 0.221286 -0.641305
1001 0.0302475 0.140052 0.570584
1009 -0.6553 0.274777 0.69604
274 0.0967682 -0.278464 0.429342
282 0.175181 0.0930525 0.487067
266 0.806176 0.224878 0.0704708
290 -0.204772 0.495059 -0.665266
298 -0.0150115 0.585731 0.100839
922 0.212801 -0.333626 -0.455593
930 -0.148034 0.738667 -0.643163
938 0.582204 -1.10548 0.653919
946 -0.709848 -1.6631 0.768284
954 0.118809 1.51191 -0.35772
258 -0.574356 -0.598024 -0.237744
962 0.490492 -0.60798 0.23464
970 0.2169 0.249696 -0.343524
978 0.5109 0.615916 0.308604
994 0.00292077 -1.10924 0.300274
1002 -0.450187 1.11301 0.419041
1010 1.46544 0.725667 1.04309
250 0.727883 -0.110455 0.699352
98 -0.0249732 -0.913921 0.987118
506 -0.974042 0.135426 0.269856
363 0.447492 -0.465656 0.366304
1171 0.82197 -1.40285 1.05719
275 0.13287 -0.0984932 0.358195
267 -0.424039 -1.99823 -0.650265
283 -0.0854521 -0.0678524 0.178296
291 -0.232221 -1.18926 -0.414038
299 -0.380156 -0.324267 0.932962
931 0.517648 0.0991444 0.168707
939 0.0107631 -0.271739 -0.290049
947 1.02515 -1.34283 0.164011
259 0.174134 0.252925 -0.239288
955 -0.328114 0.747191 1.0163
963 -0.317802 -0.0468041 1.02535
971 -0.797082 0.406453 0.374629
979 -0.0956277 -0.755212 0.807818
987 0.302654 -0.73311 -0.0766924
995 1.29665 0.716738 -0.303788
1003 -0.662719 -0.56014 -0.0515609
1011 -1.27324 -1.15087 0.680317
211 0.502791 -0.247962 0.801326
579 0.609802 0.295049 -1.09052
1100 -0.672565 0.323926 0.382478
268 -0.143436 -0.255092 -0.0338932
276 0.0999362 1.14879 0.0644345
284 0.501396 0.651421 0.0374053
292 -0.0857957 0.665113 0.735928
300 0.465157 0.452071 0.36052
924 -1.60672 0.273983 0.204744
932 0.0353688 -0.512627 0.113538
940 -0.0927558 0.680397 0.846231
260 -0.983187 -0.847556 -0.475378
948 0.0283183 -0.177192 1.09029
956 -0.538285 0.360263 -0.224633
964 -0.46105 0.998331 0.913461
972 0.762847 -1.05902 -1.25691
980 0.758336 -0.302155 0.985986
988 -0.0797787 -0.179697 -0.781619
996 1.01112 0.626165 1.37099
252 -0.136647 0.618407 0.464976
1004 0.926691 0.816517 0.380363
1012 1.224 -0.51677 0.36776
60 -0.484219 -0.0745956 -0.242262
350 0.789613 0.476091 -0.251135
1174 -0.647266 0.291106 1.10402
270 -0.728993 -1.11226 -0.306058
278 -0.0176417 -0.0336453 -0.121223
286 -0.254887 -1.08046 -1.09683
294 0.236152 -0.541529 -0.8833
302 -0.66859 0.111824 1.06446
926 -0.0826234 1.32833 0.592512
262 0.0144948 -0.449885 0.751551
934 0.421556 -0.72394 -0.719732
942 1.03841 0.381014 0.659756
950 -0.225597 0.75863 -0.583971
958 -1.16618 0.628719 0.276969
966 -0.559859 -0.609324 0.980315
974 -0.34876 -1.84433 0.718751
982 -0.274918 -0.0425908 1.27584
254 0.150413 0.029016 -0.769146
990 -0.609202 0.234122 0.0877863
998 0.161565 -0.0335493 -0.188766
1006 -0.699635 -0.252789 0.154074
886 -0.211566 -0.036129 0.543063
550 -0.598549 0.742544 -0.812563
1143 0.28361 -1.3434 -0.191817
279 0.119483 -0.390386 0.29168
287 0.566879 -0.175959 0.613694
295 0.365033 0.3178 0.515359
919 -1.32173 0.831921 0.29008
263 -0.304501 1.6808 0.910055
927 -0.748985 0.68543 -1.02973
935 1.56317 0.385036 0.49177
943 1.02482 -1.52604 0.544136
951 -0.963614 -0.558146 -0.363655
959 0.0951921 0.377296 -0.0074517
967 0.742129 0.586349 0.391584
975 -0.564638 -1.19696 -0.176196
255 -0.890279 0.387757 -1.08469
983 0.330299 1.9442 -0.717156
991 0.221753 0.205182 -0.91613
999 -0.504548 -0.466327 1.05112
567 0.409463 0.131127 0.555204
1094 0.708696 -0.265119 -0.0952112
1086 0.446571 0.0415416 -1.21128